#INFO: **** input file is /lustre09/project/6004934/jaafar1/PySCF-MRCC/Fluorine/neutral/dawCV3Z/UHF/input.py ****
import pyscf
from pyscf import cc, lib, tools, scf, symm, ao2mo
from pyscf.gto.basis import parse_gaussian
from pyscf.scf import atom_hf

name = 'out'
mol = pyscf.M(
    atom = '''
        F
    ''',
    unit = 'angstrom',
    basis = {
            'F' : parse_gaussian.load('F-d-aug-cc-pwCVTZ.gbs', 'F')
    },
    charge = 0,
    spin = 1,
    symmetry = True,
    verbose = 9,
    symmetry_subgroup = 'D2h',
    output = name +'.txt',
    max_memory = 16000,
)

original_AtomSphAverageRHF = atom_hf.AtomSphAverageRHF

class CustomAtomSphAverageRHF(original_AtomSphAverageRHF):
    def __init__(self, mol):
        super().__init__(mol)
        self.max_cycle = 9999
        self.direct_scf = False

atom_hf.AtomSphAverageRHF = CustomAtomSphAverageRHF

mf = mol.UHF().set(
    conv_tol=1e-15,
    max_cycle=9999,
    ddm_tol=1e-14,
    direct_scf=False,
    chkfile=name + '.chk',
    init_guess='atom',
    irrep_nelec={'Ag': 4, 'B3u': 2, 'B2u': 2, 'B1u': 1}
)

mf.kernel()

atom_hf.AtomSphAverageRHF = original_AtomSphAverageRHF

#pyscf.tools.fcidump.from_chkfile_uhf('FCIdump',name+'.chk',tol=1e-18, float_format='% 0.20E',molpro_orbsym=False,orbsym=None)
pyscf.tools.fcidump.from_scf_uhf(mf,'fort.55',tol=1e-18, float_format='% 0.20E',molpro_orbsym=False)
#MRCCInterface.run_mrcc(mf, fort_file='fort.55', mrcc_input_file='MINP', tol=1e-18, float_format='% 0.20E', molpro_orbsym=False)
#INFO: ******************** input file end ********************


System: uname_result(system='Linux', node='rc32405', release='5.14.0-687.15.1.el9_8.x86_64', version='#1 SMP PREEMPT_DYNAMIC Thu Jun 11 08:51:45 EDT 2026', machine='x86_64')  Threads 4
Python 3.13.2 (main, Feb  5 2025, 15:06:39) [GCC 13.3.0]
numpy 2.2.2  scipy 1.15.1  h5py 3.13.0
Date: Fri Jun 19 00:53:48 2026
PySCF version 2.10.0
PySCF path  /home/jaafar1/links/projects/rrg-tzeng/jaafar1/VENV/MRCCInterface/lib/python3.13/site-packages/pyscf

[CONFIG] ARGPARSE = False
[CONFIG] DEBUG = False
[CONFIG] MAX_MEMORY = 4000
[CONFIG] TMPDIR = /tmp
[CONFIG] UNIT = angstrom
[CONFIG] VERBOSE = 3
[CONFIG] conf_file = None
[INPUT] verbose = 9
[INPUT] max_memory = 16000 
[INPUT] num. atoms = 1
[INPUT] num. electrons = 9
[INPUT] charge = 0
[INPUT] spin (= nelec alpha-beta = 2S) = 1
[INPUT] symmetry True subgroup D2h
[INPUT] Mole.unit = angstrom
[INPUT] Symbol           X                Y                Z      unit          X                Y                Z       unit  Magmom
[INPUT]  1 F      0.000000000000   0.000000000000   0.000000000000 AA    0.000000000000   0.000000000000   0.000000000000 Bohr   0.0
[INPUT] ---------------- BASIS SET ---------------- 
[INPUT] l, kappa, [nprim/nctr], expnt,             c_1 c_2 ...
[INPUT] F
[INPUT] 0    0    [1    /1   ]  19.364               1
[INPUT] 0    0    [10   /2   ]  19500             0.000507 -0.000117
                                2923              0.003923 -0.000912
                                664.5             0.0202 -0.004717
                                187.5             0.07901 -0.019086
                                60.62             0.230439 -0.059655
                                21.42             0.432872 -0.14001
                                7.95              0.349964 -0.176782
                                2.257             0.043233 0.171625
                                0.8815            -0.007892 0.605043
                                0.3041            0.002384 0.369512
[INPUT] 0    0    [1    /1   ]  7.94                 1
[INPUT] 0    0    [1    /1   ]  2.257                1
[INPUT] 0    0    [1    /1   ]  0.3041               1
[INPUT] 0    0    [1    /1   ]  0.09158              1
[INPUT] 0    0    [1    /1   ]  0.0276               1
[INPUT] 1    0    [1    /1   ]  48.325               1
[INPUT] 1    0    [1    /1   ]  13.069               1
[INPUT] 1    0    [1    /1   ]  0.9132               1
[INPUT] 1    0    [5    /1   ]  43.88             0.016665
                                9.926             0.104472
                                2.93              0.31726
                                0.9132            0.487343
                                0.2672            0.334604
[INPUT] 1    0    [1    /1   ]  0.2672               1
[INPUT] 1    0    [1    /1   ]  0.07361              1
[INPUT] 1    0    [1    /1   ]  0.0203               1
[INPUT] 2    0    [1    /1   ]  13.644               1
[INPUT] 2    0    [1    /1   ]  3.107                1
[INPUT] 2    0    [1    /1   ]  0.855                1
[INPUT] 2    0    [1    /1   ]  0.292                1
[INPUT] 2    0    [1    /1   ]  0.0997               1
[INPUT] 3    0    [1    /1   ]  1.917                1
[INPUT] 3    0    [1    /1   ]  0.724                1
[INPUT] 3    0    [1    /1   ]  0.273                1

nuclear repulsion = 0
point group symmetry = SO3, use subgroup D2h
symmetry origin: [0. 0. 0.]
symmetry axis x: [1. 0. 0.]
symmetry axis y: [0. 1. 0.]
symmetry axis z: [0. 0. 1.]
num. orbitals of irrep Ag = 18
num. orbitals of irrep B1g = 5
num. orbitals of irrep B2g = 5
num. orbitals of irrep B3g = 5
num. orbitals of irrep Au = 3
num. orbitals of irrep B1u = 13
num. orbitals of irrep B2u = 13
num. orbitals of irrep B3u = 13
number of shells = 22
number of NR pGTOs = 95
number of NR cGTOs = 75
basis = {'F': [[0, [19.364, 1.0]], [0, [19500.0, 0.000507, -0.000117], [2923.0, 0.003923, -0.000912], [664.5, 0.0202, -0.004717], [187.5, 0.07901, -0.019086], [60.62, 0.230439, -0.059655], [21.42, 0.432872, -0.14001], [7.95, 0.349964, -0.176782], [2.257, 0.043233, 0.171625], [0.8815, -0.007892, 0.605043], [0.3041, 0.002384, 0.369512]], [0, [7.94, 1.0]], [0, [2.257, 1.0]], [0, [0.3041, 1.0]], [0, [0.09158, 1.0]], [0, [0.0276, 1.0]], [1, [48.325, 1.0]], [1, [13.069, 1.0]], [1, [0.9132, 1.0]], [1, [43.88, 0.016665], [9.926, 0.104472], [2.93, 0.31726], [0.9132, 0.487343], [0.2672, 0.334604]], [1, [0.2672, 1.0]], [1, [0.07361, 1.0]], [1, [0.0203, 1.0]], [2, [13.644, 1.0]], [2, [3.107, 1.0]], [2, [0.855, 1.0]], [2, [0.292, 1.0]], [2, [0.0997, 1.0]], [3, [1.917, 1.0]], [3, [0.724, 1.0]], [3, [0.273, 1.0]]]}
ecp = {}
bas 0, expnt(s) = [19.364]
bas 1, expnt(s) = [1.950e+04 2.923e+03 6.645e+02 1.875e+02 6.062e+01 2.142e+01 7.950e+00
 2.257e+00 8.815e-01 3.041e-01]
bas 2, expnt(s) = [7.94]
bas 3, expnt(s) = [2.257]
bas 4, expnt(s) = [0.3041]
bas 5, expnt(s) = [0.09158]
bas 6, expnt(s) = [0.0276]
bas 7, expnt(s) = [48.325]
bas 8, expnt(s) = [13.069]
bas 9, expnt(s) = [0.9132]
bas 10, expnt(s) = [43.88    9.926   2.93    0.9132  0.2672]
bas 11, expnt(s) = [0.2672]
bas 12, expnt(s) = [0.07361]
bas 13, expnt(s) = [0.0203]
bas 14, expnt(s) = [13.644]
bas 15, expnt(s) = [3.107]
bas 16, expnt(s) = [0.855]
bas 17, expnt(s) = [0.292]
bas 18, expnt(s) = [0.0997]
bas 19, expnt(s) = [1.917]
bas 20, expnt(s) = [0.724]
bas 21, expnt(s) = [0.273]
CPU time:         1.61
arg.atm = [[ 9 20  1 23  0  0]]
arg.bas = [[  0   0   1   1   0  24  25   0]
 [  0   0  10   2   0  26  36   0]
 [  0   0   1   1   0  56  57   0]
 [  0   0   1   1   0  58  59   0]
 [  0   0   1   1   0  60  61   0]
 [  0   0   1   1   0  62  63   0]
 [  0   0   1   1   0  64  65   0]
 [  0   1   1   1   0  66  67   0]
 [  0   1   1   1   0  68  69   0]
 [  0   1   1   1   0  70  71   0]
 [  0   1   5   1   0  72  77   0]
 [  0   1   1   1   0  82  83   0]
 [  0   1   1   1   0  84  85   0]
 [  0   1   1   1   0  86  87   0]
 [  0   2   1   1   0  88  89   0]
 [  0   2   1   1   0  90  91   0]
 [  0   2   1   1   0  92  93   0]
 [  0   2   1   1   0  94  95   0]
 [  0   2   1   1   0  96  97   0]
 [  0   3   1   1   0  98  99   0]
 [  0   3   1   1   0 100 101   0]
 [  0   3   1   1   0 102 103   0]]
arg.env = [ 0.00000000e+00  0.00000000e+00  0.00000000e+00  0.00000000e+00
  0.00000000e+00  0.00000000e+00  0.00000000e+00  0.00000000e+00
  0.00000000e+00  0.00000000e+00  0.00000000e+00  0.00000000e+00
  0.00000000e+00  0.00000000e+00  0.00000000e+00  0.00000000e+00
  0.00000000e+00  0.00000000e+00  0.00000000e+00  0.00000000e+00
  0.00000000e+00  0.00000000e+00  0.00000000e+00  0.00000000e+00
  1.93640000e+01  2.33217604e+01  1.95000000e+04  2.92300000e+03
  6.64500000e+02  1.87500000e+02  6.06200000e+01  2.14200000e+01
  7.95000000e+00  2.25700000e+00  8.81500000e-01  3.04100000e-01
  2.11372793e+00  3.94008044e+00  6.67940500e+00  1.01145877e+01
  1.26483274e+01  1.08890317e+01  4.18614133e+00  2.01131092e-01
 -1.81392357e-02  2.46651485e-03 -4.87783012e-01 -9.15970107e-01
 -1.55973912e+00 -2.44332211e+00 -3.27433907e+00 -3.52199315e+00
 -2.11460006e+00  7.98443281e-01  1.39064996e+00  3.82301245e-01
  7.94000000e+00  1.19503438e+01  2.25700000e+00  4.65225695e+00
  3.04100000e-01  1.03461159e+00  9.15800000e-02  4.20596354e-01
  2.76000000e-02  1.71079052e-01  4.83250000e+01  3.71705700e+02
  1.30690000e+01  7.24915423e+01  9.13200000e-01  2.60430456e+00
  4.38800000e+01  9.92600000e+00  2.93000000e+00  9.13200000e-01
  2.67200000e-01  5.49064101e+00  5.36972699e+00  3.54800565e+00
  1.26918979e+00  1.87525855e-01  2.67200000e-01  5.60441078e-01
  7.36100000e-02  1.11855003e-01  2.03000000e-02  2.23539585e-02
  1.36440000e+01  2.52741978e+02  3.10700000e+00  1.89725881e+01
  8.55000000e-01  1.98367302e+00  2.92000000e-01  3.02656061e-01
  9.97000000e-02  4.61578863e-02  1.91700000e+00  8.52923569e+00
  7.24000000e-01  9.53722735e-01  2.73000000e-01  1.06261592e-01]
ecpbas  = []


******** <class 'pyscf.scf.uhf_symm.SymAdaptedUHF'> ********
method = SymAdaptedUHF
initial guess = atom
damping factor = 0
level_shift factor = 0
DIIS = <class 'pyscf.scf.diis.CDIIS'>
diis_start_cycle = 1
diis_space = 8
diis_damp = 0
SCF conv_tol = 1e-15
SCF conv_tol_grad = None
SCF ddm_tol = 1e-14
SCF max_cycles = 9999
direct_scf = False
chkfile to save SCF result = out.chk
max_memory 16000 MB (current use 119 MB)
number electrons alpha = 5  beta = 4
irrep_nelec {'Ag': 4, 'B3u': 2, 'B2u': 2, 'B1u': 1}
Freeze 9 electrons in irreps ['Ag', 'B3u', 'B2u', 'B1u']
    0 free electrons in irreps B1g B2g B3g Au
cond(S) = 785.1693819712689

WARN: Singularity detected in overlap matrix (condition number =  785). SCF may be inaccurate and hard to converge.

Set gradient conv threshold to 3.16228e-08
Spherically averaged atomic HF for {'F'}


******** <class '__main__.CustomAtomSphAverageRHF'> ********
method = CustomAtomSphAverageRHF
initial guess = minao
damping factor = 0
level_shift factor = 0
DIIS = <class 'pyscf.scf.diis.CDIIS'>
diis_start_cycle = 1
diis_space = 8
diis_damp = 0
SCF conv_tol = 1e-09
SCF conv_tol_grad = None
SCF ddm_tol = 1e-10
SCF max_cycles = 9999
direct_scf = False
chkfile to save SCF result = /tmp/tmpoqwe1y1n
max_memory 16000 MB (current use 120 MB)
atom = F
Set gradient conv threshold to 3.16228e-05
Initial guess from minao.
Nelec from initial guess = 8.999532119950235
E1 = -139.0397895032879  E_coul = 39.98660516805844
init E= -99.0531843352294
l = 0  e_0 = -26.4089809
l = 0  e_1 = -1.59672302
l = 0  e_2 = 0.04522621
l = 0  e_3 = 0.29528603
l = 0  e_4 = 1.4648152
l = 0  e_5 = 6.31302471
l = 0  e_6 = 27.691907
l = 0  e_7 = 134.319366
l = 1  e_0 = -0.612083806
l = 1  e_1 = 0.0486665223
l = 1  e_2 = 0.249735417
l = 1  e_3 = 1.14648646
l = 1  e_4 = 4.89023442
l = 1  e_5 = 23.8392163
l = 1  e_6 = 113.515568
l = 2  e_0 = 0.316705201
l = 2  e_1 = 1.06508299
l = 2  e_2 = 2.94808889
l = 2  e_3 = 9.29052912
l = 2  e_4 = 39.9696384
l = 3  e_0 = 1.12652075
l = 3  e_1 = 3.42722099
l = 3  e_2 = 9.10078604
    CPU time for initialize scf      0.23 sec, wall time      0.13 sec
l = 0  e_0 = -26.4089809
l = 0  e_1 = -1.59672302
l = 0  e_2 = 0.04522621
l = 0  e_3 = 0.29528603
l = 0  e_4 = 1.4648152
l = 0  e_5 = 6.31302471
l = 0  e_6 = 27.691907
l = 0  e_7 = 134.319366
l = 1  e_0 = -0.612083806
l = 1  e_1 = 0.0486665223
l = 1  e_2 = 0.249735417
l = 1  e_3 = 1.14648646
l = 1  e_4 = 4.89023442
l = 1  e_5 = 23.8392163
l = 1  e_6 = 113.515568
l = 2  e_0 = 0.316705201
l = 2  e_1 = 1.06508299
l = 2  e_2 = 2.94808889
l = 2  e_3 = 9.29052912
l = 2  e_4 = 39.9696384
l = 3  e_0 = 1.12652075
l = 3  e_1 = 3.42722099
l = 3  e_2 = 9.10078604
l = 0  occ = 2 + 0
l = 1  occ = 0 + 1.667
l = 2  occ = 0 + 0
l = 3  occ = 0 + 0
E1 = -138.7006407378073  E_coul = 39.64272943300386
cycle= 1 E= -99.0579113048034  delta_E= -0.00473  |g|=    0  |ddm|= 0.0795
    CPU time for cycle= 1      0.02 sec, wall time      0.01 sec
diis-norm(errvec)=0.0730865
diis-c [-0.00534164  1.        ]
l = 0  e_0 = -26.4996374
l = 0  e_1 = -1.62291105
l = 0  e_2 = 0.0455022509
l = 0  e_3 = 0.294464259
l = 0  e_4 = 1.45630545
l = 0  e_5 = 6.28405574
l = 0  e_6 = 27.628425
l = 0  e_7 = 134.224503
l = 1  e_0 = -0.634126952
l = 1  e_1 = 0.048716228
l = 1  e_2 = 0.249210344
l = 1  e_3 = 1.13938029
l = 1  e_4 = 4.8599798
l = 1  e_5 = 23.7711702
l = 1  e_6 = 113.421314
l = 2  e_0 = 0.317335109
l = 2  e_1 = 1.06357276
l = 2  e_2 = 2.9371601
l = 2  e_3 = 9.25616225
l = 2  e_4 = 39.8981333
l = 3  e_0 = 1.12744656
l = 3  e_1 = 3.42409194
l = 3  e_2 = 9.08092827
l = 0  occ = 2 + 0
l = 1  occ = 0 + 1.667
l = 2  occ = 0 + 0
l = 3  occ = 0 + 0
E1 = -138.90933815492443  E_coul = 39.85110795447084
cycle= 2 E= -99.0582302004536  delta_E= -0.000319  |g|=    0  |ddm|= 0.03
    CPU time for cycle= 2      0.03 sec, wall time      0.01 sec
diis-norm(errvec)=0.0363913
diis-c [-1.02617875e-04  3.25646401e-01  6.74353599e-01]
l = 0  e_0 = -26.4680043
l = 0  e_1 = -1.61148613
l = 0  e_2 = 0.0457012644
l = 0  e_3 = 0.295629007
l = 0  e_4 = 1.46098838
l = 0  e_5 = 6.29717849
l = 0  e_6 = 27.6528939
l = 0  e_7 = 134.256389
l = 1  e_0 = -0.623226693
l = 1  e_1 = 0.0487538369
l = 1  e_2 = 0.249891134
l = 1  e_3 = 1.14403847
l = 1  e_4 = 4.87405902
l = 1  e_5 = 23.7968954
l = 1  e_6 = 113.453352
l = 2  e_0 = 0.317632909
l = 2  e_1 = 1.06572971
l = 2  e_2 = 2.94409194
l = 2  e_3 = 9.27218185
l = 2  e_4 = 39.9254579
l = 3  e_0 = 1.12819444
l = 3  e_1 = 3.42792603
l = 3  e_2 = 9.09199148
l = 0  occ = 2 + 0
l = 1  occ = 0 + 1.667
l = 2  occ = 0 + 0
l = 3  occ = 0 + 0
E1 = -138.84037727515008  E_coul = 39.782060307097616
cycle= 3 E= -99.0583169680525  delta_E= -8.68e-05  |g|=    0  |ddm|= 0.0118
    CPU time for cycle= 3      0.02 sec, wall time      0.01 sec
diis-norm(errvec)=0.0019787
diis-c [-3.29944280e-07 -7.10333523e-02 -1.10532438e-01  1.18156579e+00]
l = 0  e_0 = -26.4682297
l = 0  e_1 = -1.61142622
l = 0  e_2 = 0.0457523655
l = 0  e_3 = 0.295762614
l = 0  e_4 = 1.46115526
l = 0  e_5 = 6.29736706
l = 0  e_6 = 27.6528367
l = 0  e_7 = 134.256272
l = 1  e_0 = -0.622934253
l = 1  e_1 = 0.0487594162
l = 1  e_2 = 0.249969869
l = 1  e_3 = 1.14432614
l = 1  e_4 = 4.87434965
l = 1  e_5 = 23.796842
l = 1  e_6 = 113.453162
l = 2  e_0 = 0.317726024
l = 2  e_1 = 1.06596326
l = 2  e_2 = 2.94445118
l = 2  e_3 = 9.27245059
l = 2  e_4 = 39.9253419
l = 3  e_0 = 1.1283822
l = 3  e_1 = 3.42831761
l = 3  e_2 = 9.09239213
l = 0  occ = 2 + 0
l = 1  occ = 0 + 1.667
l = 2  occ = 0 + 0
l = 3  occ = 0 + 0
E1 = -138.84278525903557  E_coul = 39.78446745011576
cycle= 4 E= -99.0583178089198  delta_E= -8.41e-07  |g|=    0  |ddm|= 0.000796
    CPU time for cycle= 4      0.02 sec, wall time      0.01 sec
diis-norm(errvec)=5.81187e-05
diis-c [-4.43182708e-10  2.94868722e-03  3.74028392e-03 -7.16551842e-02
  1.06496621e+00]
l = 0  e_0 = -26.4682082
l = 0  e_1 = -1.6114168
l = 0  e_2 = 0.0457535977
l = 0  e_3 = 0.295765668
l = 0  e_4 = 1.46116073
l = 0  e_5 = 6.29738001
l = 0  e_6 = 27.6528547
l = 0  e_7 = 134.256294
l = 1  e_0 = -0.622919393
l = 1  e_1 = 0.0487594108
l = 1  e_2 = 0.249971369
l = 1  e_3 = 1.14433448
l = 1  e_4 = 4.87436445
l = 1  e_5 = 23.7968612
l = 1  e_6 = 113.453184
l = 2  e_0 = 0.317728318
l = 2  e_1 = 1.06596879
l = 2  e_2 = 2.94446245
l = 2  e_3 = 9.27246711
l = 2  e_4 = 39.9253616
l = 3  e_0 = 1.12838653
l = 3  e_1 = 3.42832711
l = 3  e_2 = 9.09240665
l = 0  occ = 2 + 0
l = 1  occ = 0 + 1.667
l = 2  occ = 0 + 0
l = 3  occ = 0 + 0
E1 = -138.842816497937  E_coul = 39.78449868807826
cycle= 5 E= -99.0583178098587  delta_E= -9.39e-10  |g|=    0  |ddm|= 2.34e-05
    CPU time for cycle= 5      0.02 sec, wall time      0.01 sec
diis-norm(errvec)=5.85401e-06
diis-c [-2.91462200e-12 -2.60841276e-04 -4.54639488e-04  7.33599493e-03
 -1.29163639e-01  1.12254312e+00]
l = 0  e_0 = -26.4682044
l = 0  e_1 = -1.61141462
l = 0  e_2 = 0.0457536961
l = 0  e_3 = 0.29576603
l = 0  e_4 = 1.46116189
l = 0  e_5 = 6.29738241
l = 0  e_6 = 27.6528581
l = 0  e_7 = 134.256297
l = 1  e_0 = -0.622917635
l = 1  e_1 = 0.0487594288
l = 1  e_2 = 0.249971573
l = 1  e_3 = 1.14433547
l = 1  e_4 = 4.87436667
l = 1  e_5 = 23.7968646
l = 1  e_6 = 113.453187
l = 2  e_0 = 0.317728471
l = 2  e_1 = 1.06596942
l = 2  e_2 = 2.94446392
l = 2  e_3 = 9.27246975
l = 2  e_4 = 39.9253652
l = 3  e_0 = 1.12838687
l = 3  e_1 = 3.42832818
l = 3  e_2 = 9.09240878
l = 0  occ = 2 + 0
l = 1  occ = 0 + 1.667
l = 2  occ = 0 + 0
l = 3  occ = 0 + 0
E1 = -138.8428090580891  E_coul = 39.78449124822723
cycle= 6 E= -99.0583178098619  delta_E= -3.13e-12  |g|=    0  |ddm|= 2.72e-06
    CPU time for cycle= 6      0.02 sec, wall time      0.01 sec
diis-norm(errvec)=2.3909e-07
diis-c [-1.64965443e-14  7.23120377e-06  2.25630790e-05 -2.26250330e-04
  5.12106303e-03 -1.02916586e-01  1.09799198e+00]
l = 0  e_0 = -26.4682045
l = 0  e_1 = -1.6114146
l = 0  e_2 = 0.0457536983
l = 0  e_3 = 0.295766037
l = 0  e_4 = 1.4611619
l = 0  e_5 = 6.2973824
l = 0  e_6 = 27.652858
l = 0  e_7 = 134.256297
l = 1  e_0 = -0.62291766
l = 1  e_1 = 0.0487594284
l = 1  e_2 = 0.249971571
l = 1  e_3 = 1.14433546
l = 1  e_4 = 4.87436664
l = 1  e_5 = 23.7968646
l = 1  e_6 = 113.453187
l = 2  e_0 = 0.317728474
l = 2  e_1 = 1.06596942
l = 2  e_2 = 2.94446391
l = 2  e_3 = 9.27246971
l = 2  e_4 = 39.9253652
l = 3  e_0 = 1.12838687
l = 3  e_1 = 3.42832819
l = 3  e_2 = 9.09240876
l = 0  occ = 2 + 0
l = 1  occ = 0 + 1.667
l = 2  occ = 0 + 0
l = 3  occ = 0 + 0
E1 = -138.84280940293874  E_coul = 39.784491593076986
cycle= 7 E= -99.0583178098618  delta_E= 1.14e-13  |g|=    0  |ddm|= 2.64e-07
    CPU time for cycle= 7      0.02 sec, wall time      0.01 sec
diis-norm(errvec)=4.58397e-08
Linear dependence found in DIIS error vectors.
diis-c [-4.84977082e-15  4.75788661e-06  1.24337745e-05 -1.42838706e-04
  3.07173475e-03 -5.41879530e-02  5.00364486e-01  5.50877379e-01]
l = 0  e_0 = -26.4682044
l = 0  e_1 = -1.61141459
l = 0  e_2 = 0.0457536987
l = 0  e_3 = 0.295766039
l = 0  e_4 = 1.46116191
l = 0  e_5 = 6.29738241
l = 0  e_6 = 27.652858
l = 0  e_7 = 134.256297
l = 1  e_0 = -0.622917654
l = 1  e_1 = 0.0487594284
l = 1  e_2 = 0.249971572
l = 1  e_3 = 1.14433546
l = 1  e_4 = 4.87436665
l = 1  e_5 = 23.7968646
l = 1  e_6 = 113.453187
l = 2  e_0 = 0.317728474
l = 2  e_1 = 1.06596943
l = 2  e_2 = 2.94446391
l = 2  e_3 = 9.27246972
l = 2  e_4 = 39.9253652
l = 3  e_0 = 1.12838687
l = 3  e_1 = 3.42832819
l = 3  e_2 = 9.09240876
l = 0  occ = 2 + 0
l = 1  occ = 0 + 1.667
l = 2  occ = 0 + 0
l = 3  occ = 0 + 0
E1 = -138.84280937995786  E_coul = 39.78449157009626
cycle= 8 E= -99.0583178098616  delta_E= 1.71e-13  |g|=    0  |ddm|= 1.93e-08
    CPU time for cycle= 8      0.02 sec, wall time      0.01 sec
diis-norm(errvec)=2.41429e-08
Linear dependence found in DIIS error vectors.
diis-c [-2.22935817e-15  3.54146928e-06  8.69932700e-06 -1.04894286e-04
  2.21774706e-03 -3.72473814e-02  3.22345385e-01  3.55453860e-01
  3.57323043e-01]
l = 0  e_0 = -26.4682044
l = 0  e_1 = -1.61141459
l = 0  e_2 = 0.0457536988
l = 0  e_3 = 0.29576604
l = 0  e_4 = 1.46116191
l = 0  e_5 = 6.29738241
l = 0  e_6 = 27.6528581
l = 0  e_7 = 134.256297
l = 1  e_0 = -0.622917652
l = 1  e_1 = 0.0487594285
l = 1  e_2 = 0.249971572
l = 1  e_3 = 1.14433547
l = 1  e_4 = 4.87436665
l = 1  e_5 = 23.7968646
l = 1  e_6 = 113.453187
l = 2  e_0 = 0.317728475
l = 2  e_1 = 1.06596943
l = 2  e_2 = 2.94446392
l = 2  e_3 = 9.27246972
l = 2  e_4 = 39.9253652
l = 3  e_0 = 1.12838687
l = 3  e_1 = 3.42832819
l = 3  e_2 = 9.09240877
l = 0  occ = 2 + 0
l = 1  occ = 0 + 1.667
l = 2  occ = 0 + 0
l = 3  occ = 0 + 0
E1 = -138.84280937197857  E_coul = 39.78449156211678
cycle= 9 E= -99.0583178098618  delta_E= -1.99e-13  |g|=    0  |ddm|= 6.61e-09
    CPU time for cycle= 9      0.02 sec, wall time      0.01 sec
diis-norm(errvec)=1.66916e-08
Linear dependence found in DIIS error vectors.
diis-c [-2.55454722e-15  2.61883089e-01  2.37414032e-06 -1.68127133e-05
  8.41493094e-04 -2.37217595e-02  2.38849141e-01  2.60598344e-01
  2.61564131e-01]
l = 0  e_0 = -26.4682044
l = 0  e_1 = -1.61141459
l = 0  e_2 = 0.0457536989
l = 0  e_3 = 0.29576604
l = 0  e_4 = 1.46116191
l = 0  e_5 = 6.29738241
l = 0  e_6 = 27.6528581
l = 0  e_7 = 134.256297
l = 1  e_0 = -0.62291765
l = 1  e_1 = 0.0487594285
l = 1  e_2 = 0.249971572
l = 1  e_3 = 1.14433547
l = 1  e_4 = 4.87436666
l = 1  e_5 = 23.7968646
l = 1  e_6 = 113.453187
l = 2  e_0 = 0.317728475
l = 2  e_1 = 1.06596943
l = 2  e_2 = 2.94446392
l = 2  e_3 = 9.27246972
l = 2  e_4 = 39.9253652
l = 3  e_0 = 1.12838687
l = 3  e_1 = 3.42832819
l = 3  e_2 = 9.09240877
l = 0  occ = 2 + 0
l = 1  occ = 0 + 1.667
l = 2  occ = 0 + 0
l = 3  occ = 0 + 0
E1 = -138.84280936412532  E_coul = 39.78449155426366
cycle= 10 E= -99.0583178098616  delta_E= 1.42e-13  |g|=    0  |ddm|= 2.85e-09
    CPU time for cycle= 10      0.02 sec, wall time      0.01 sec
diis-norm(errvec)=1.19389e-08
Linear dependence found in DIIS error vectors.
diis-c [-3.57396016e-16  2.55318515e-01  2.55356188e-01 -4.17095861e-06
  2.27990109e-04 -4.73603004e-03 -5.05435724e-03  2.45949499e-01
  2.52942365e-01]
l = 0  e_0 = -26.4682044
l = 0  e_1 = -1.61141458
l = 0  e_2 = 0.0457536991
l = 0  e_3 = 0.295766041
l = 0  e_4 = 1.46116191
l = 0  e_5 = 6.29738242
l = 0  e_6 = 27.6528581
l = 0  e_7 = 134.256297
l = 1  e_0 = -0.622917647
l = 1  e_1 = 0.0487594285
l = 1  e_2 = 0.249971572
l = 1  e_3 = 1.14433547
l = 1  e_4 = 4.87436666
l = 1  e_5 = 23.7968646
l = 1  e_6 = 113.453187
l = 2  e_0 = 0.317728475
l = 2  e_1 = 1.06596943
l = 2  e_2 = 2.94446392
l = 2  e_3 = 9.27246973
l = 2  e_4 = 39.9253652
l = 3  e_0 = 1.12838688
l = 3  e_1 = 3.42832819
l = 3  e_2 = 9.09240877
l = 0  occ = 2 + 0
l = 1  occ = 0 + 1.667
l = 2  occ = 0 + 0
l = 3  occ = 0 + 0
E1 = -138.84280935345953  E_coul = 39.78449154359777
cycle= 11 E= -99.0583178098618  delta_E= -1.14e-13  |g|=    0  |ddm|= 9.55e-09
    CPU time for cycle= 11      0.03 sec, wall time      0.01 sec
diis-norm(errvec)=2.15533e-09
Linear dependence found in DIIS error vectors.
diis-c [-8.99434821e-16  2.04671891e-01  2.04747735e-01  2.07899579e-01
  7.04334020e-05 -2.91653547e-03 -1.36191866e-02  1.96537926e-01
  2.02608157e-01]
l = 0  e_0 = -26.4682044
l = 0  e_1 = -1.61141458
l = 0  e_2 = 0.0457536991
l = 0  e_3 = 0.295766041
l = 0  e_4 = 1.46116191
l = 0  e_5 = 6.29738242
l = 0  e_6 = 27.6528581
l = 0  e_7 = 134.256297
l = 1  e_0 = -0.622917647
l = 1  e_1 = 0.0487594285
l = 1  e_2 = 0.249971573
l = 1  e_3 = 1.14433547
l = 1  e_4 = 4.87436666
l = 1  e_5 = 23.7968646
l = 1  e_6 = 113.453187
l = 2  e_0 = 0.317728475
l = 2  e_1 = 1.06596943
l = 2  e_2 = 2.94446392
l = 2  e_3 = 9.27246973
l = 2  e_4 = 39.9253652
l = 3  e_0 = 1.12838688
l = 3  e_1 = 3.42832819
l = 3  e_2 = 9.09240877
l = 0  occ = 2 + 0
l = 1  occ = 0 + 1.667
l = 2  occ = 0 + 0
l = 3  occ = 0 + 0
E1 = -138.8428093519587  E_coul = 39.784491542097086
cycle= 12 E= -99.0583178098616  delta_E= 1.56e-13  |g|=    0  |ddm|= 1.01e-09
    CPU time for cycle= 12      0.02 sec, wall time      0.01 sec
diis-norm(errvec)=1.80301e-09
Linear dependence found in DIIS error vectors.
diis-c [-2.64856731e-17  1.70184744e-01  1.70359192e-01  1.73283901e-01
  1.73569015e-01 -2.09662418e-03 -1.61620431e-02  1.62602590e-01
  1.68259225e-01]
l = 0  e_0 = -26.4682044
l = 0  e_1 = -1.61141458
l = 0  e_2 = 0.0457536991
l = 0  e_3 = 0.295766041
l = 0  e_4 = 1.46116191
l = 0  e_5 = 6.29738242
l = 0  e_6 = 27.6528581
l = 0  e_7 = 134.256297
l = 1  e_0 = -0.622917647
l = 1  e_1 = 0.0487594285
l = 1  e_2 = 0.249971573
l = 1  e_3 = 1.14433547
l = 1  e_4 = 4.87436666
l = 1  e_5 = 23.7968646
l = 1  e_6 = 113.453187
l = 2  e_0 = 0.317728475
l = 2  e_1 = 1.06596943
l = 2  e_2 = 2.94446392
l = 2  e_3 = 9.27246973
l = 2  e_4 = 39.9253652
l = 3  e_0 = 1.12838688
l = 3  e_1 = 3.42832819
l = 3  e_2 = 9.09240877
l = 0  occ = 2 + 0
l = 1  occ = 0 + 1.667
l = 2  occ = 0 + 0
l = 3  occ = 0 + 0
E1 = -138.84280935114222  E_coul = 39.784491541280474
cycle= 13 E= -99.0583178098617  delta_E= -1.42e-13  |g|=    0  |ddm|= 6.93e-10
    CPU time for cycle= 13      0.02 sec, wall time      0.01 sec
diis-norm(errvec)=2.122e-09
Linear dependence found in DIIS error vectors.
diis-c [-2.80106024e-16  1.45560954e-01  1.46047933e-01  1.48966429e-01
  1.49277677e-01  1.49376189e-01 -2.08112559e-02  1.37935843e-01
  1.43646231e-01]
l = 0  e_0 = -26.4682044
l = 0  e_1 = -1.61141458
l = 0  e_2 = 0.0457536991
l = 0  e_3 = 0.295766041
l = 0  e_4 = 1.46116191
l = 0  e_5 = 6.29738242
l = 0  e_6 = 27.6528581
l = 0  e_7 = 134.256297
l = 1  e_0 = -0.622917646
l = 1  e_1 = 0.0487594285
l = 1  e_2 = 0.249971573
l = 1  e_3 = 1.14433547
l = 1  e_4 = 4.87436666
l = 1  e_5 = 23.7968646
l = 1  e_6 = 113.453187
l = 2  e_0 = 0.317728475
l = 2  e_1 = 1.06596943
l = 2  e_2 = 2.94446392
l = 2  e_3 = 9.27246973
l = 2  e_4 = 39.9253652
l = 3  e_0 = 1.12838688
l = 3  e_1 = 3.4283282
l = 3  e_2 = 9.09240877
l = 0  occ = 2 + 0
l = 1  occ = 0 + 1.667
l = 2  occ = 0 + 0
l = 3  occ = 0 + 0
E1 = -138.84280934315188  E_coul = 39.78449153329021
cycle= 14 E= -99.0583178098617  delta_E= 7.11e-14  |g|=    0  |ddm|= 1.28e-09
    CPU time for cycle= 14      0.02 sec, wall time      0.01 sec
diis-norm(errvec)=5.61132e-09
Linear dependence found in DIIS error vectors.
diis-c [-5.88784672e-17  1.25000000e-01  1.25000000e-01  1.25000000e-01
  1.25000000e-01  1.25000000e-01  1.25000000e-01  1.25000000e-01
  1.25000000e-01]
l = 0  e_0 = -26.4682044
l = 0  e_1 = -1.61141458
l = 0  e_2 = 0.0457536991
l = 0  e_3 = 0.295766041
l = 0  e_4 = 1.46116191
l = 0  e_5 = 6.29738242
l = 0  e_6 = 27.6528581
l = 0  e_7 = 134.256297
l = 1  e_0 = -0.622917647
l = 1  e_1 = 0.0487594285
l = 1  e_2 = 0.249971573
l = 1  e_3 = 1.14433547
l = 1  e_4 = 4.87436666
l = 1  e_5 = 23.7968646
l = 1  e_6 = 113.453187
l = 2  e_0 = 0.317728475
l = 2  e_1 = 1.06596943
l = 2  e_2 = 2.94446392
l = 2  e_3 = 9.27246973
l = 2  e_4 = 39.9253652
l = 3  e_0 = 1.12838688
l = 3  e_1 = 3.42832819
l = 3  e_2 = 9.09240877
l = 0  occ = 2 + 0
l = 1  occ = 0 + 1.667
l = 2  occ = 0 + 0
l = 3  occ = 0 + 0
E1 = -138.84280934684423  E_coul = 39.784491536982536
cycle= 15 E= -99.0583178098617  delta_E= -2.84e-14  |g|=    0  |ddm|= 1.47e-09
    CPU time for cycle= 15      0.02 sec, wall time      0.01 sec
diis-norm(errvec)=3.66434e-09
Linear dependence found in DIIS error vectors.
diis-c [-3.83815955e-16  1.25000000e-01  1.25000000e-01  1.25000000e-01
  1.25000000e-01  1.25000000e-01  1.25000000e-01  1.25000000e-01
  1.25000000e-01]
l = 0  e_0 = -26.4682044
l = 0  e_1 = -1.61141458
l = 0  e_2 = 0.0457536991
l = 0  e_3 = 0.295766041
l = 0  e_4 = 1.46116191
l = 0  e_5 = 6.29738242
l = 0  e_6 = 27.6528581
l = 0  e_7 = 134.256297
l = 1  e_0 = -0.622917647
l = 1  e_1 = 0.0487594285
l = 1  e_2 = 0.249971573
l = 1  e_3 = 1.14433547
l = 1  e_4 = 4.87436666
l = 1  e_5 = 23.7968646
l = 1  e_6 = 113.453187
l = 2  e_0 = 0.317728475
l = 2  e_1 = 1.06596943
l = 2  e_2 = 2.94446392
l = 2  e_3 = 9.27246973
l = 2  e_4 = 39.9253652
l = 3  e_0 = 1.12838688
l = 3  e_1 = 3.42832819
l = 3  e_2 = 9.09240877
l = 0  occ = 2 + 0
l = 1  occ = 0 + 1.667
l = 2  occ = 0 + 0
l = 3  occ = 0 + 0
E1 = -138.84280935127526  E_coul = 39.78449154141354
cycle= 16 E= -99.0583178098617  delta_E= -2.84e-14  |g|=    0  |ddm|= 8.11e-10
    CPU time for cycle= 16      0.02 sec, wall time      0.01 sec
diis-norm(errvec)=1.62147e-09
Linear dependence found in DIIS error vectors.
diis-c [-2.89052492e-16  1.25000000e-01  1.25000000e-01  1.25000000e-01
  1.25000000e-01  1.25000000e-01  1.25000000e-01  1.25000000e-01
  1.25000000e-01]
l = 0  e_0 = -26.4682044
l = 0  e_1 = -1.61141458
l = 0  e_2 = 0.0457536991
l = 0  e_3 = 0.295766041
l = 0  e_4 = 1.46116191
l = 0  e_5 = 6.29738242
l = 0  e_6 = 27.6528581
l = 0  e_7 = 134.256297
l = 1  e_0 = -0.622917647
l = 1  e_1 = 0.0487594285
l = 1  e_2 = 0.249971573
l = 1  e_3 = 1.14433547
l = 1  e_4 = 4.87436666
l = 1  e_5 = 23.7968646
l = 1  e_6 = 113.453187
l = 2  e_0 = 0.317728475
l = 2  e_1 = 1.06596943
l = 2  e_2 = 2.94446392
l = 2  e_3 = 9.27246973
l = 2  e_4 = 39.9253652
l = 3  e_0 = 1.12838688
l = 3  e_1 = 3.42832819
l = 3  e_2 = 9.09240877
l = 0  occ = 2 + 0
l = 1  occ = 0 + 1.667
l = 2  occ = 0 + 0
l = 3  occ = 0 + 0
E1 = -138.84280935354542  E_coul = 39.784491543683686
cycle= 17 E= -99.0583178098617  delta_E=    0  |g|=    0  |ddm|= 4.27e-10
    CPU time for cycle= 17      0.02 sec, wall time      0.01 sec
diis-norm(errvec)=8.04702e-10
Linear dependence found in DIIS error vectors.
diis-c [-2.89052492e-16  1.25000000e-01  1.25000000e-01  1.25000000e-01
  1.25000000e-01  1.25000000e-01  1.25000000e-01  1.25000000e-01
  1.25000000e-01]
l = 0  e_0 = -26.4682044
l = 0  e_1 = -1.61141458
l = 0  e_2 = 0.0457536991
l = 0  e_3 = 0.295766041
l = 0  e_4 = 1.46116191
l = 0  e_5 = 6.29738242
l = 0  e_6 = 27.6528581
l = 0  e_7 = 134.256297
l = 1  e_0 = -0.622917648
l = 1  e_1 = 0.0487594285
l = 1  e_2 = 0.249971573
l = 1  e_3 = 1.14433547
l = 1  e_4 = 4.87436666
l = 1  e_5 = 23.7968646
l = 1  e_6 = 113.453187
l = 2  e_0 = 0.317728475
l = 2  e_1 = 1.06596943
l = 2  e_2 = 2.94446392
l = 2  e_3 = 9.27246973
l = 2  e_4 = 39.9253652
l = 3  e_0 = 1.12838688
l = 3  e_1 = 3.42832819
l = 3  e_2 = 9.09240877
l = 0  occ = 2 + 0
l = 1  occ = 0 + 1.667
l = 2  occ = 0 + 0
l = 3  occ = 0 + 0
E1 = -138.84280935502562  E_coul = 39.784491545163824
cycle= 18 E= -99.0583178098618  delta_E= -5.68e-14  |g|=    0  |ddm|= 3.04e-10
    CPU time for cycle= 18      0.02 sec, wall time      0.01 sec
diis-norm(errvec)=7.94509e-10
Linear dependence found in DIIS error vectors.
diis-c [-2.89052492e-16  1.25000000e-01  1.25000000e-01  1.25000000e-01
  1.25000000e-01  1.25000000e-01  1.25000000e-01  1.25000000e-01
  1.25000000e-01]
l = 0  e_0 = -26.4682044
l = 0  e_1 = -1.61141458
l = 0  e_2 = 0.0457536991
l = 0  e_3 = 0.295766041
l = 0  e_4 = 1.46116191
l = 0  e_5 = 6.29738242
l = 0  e_6 = 27.6528581
l = 0  e_7 = 134.256297
l = 1  e_0 = -0.622917648
l = 1  e_1 = 0.0487594285
l = 1  e_2 = 0.249971573
l = 1  e_3 = 1.14433547
l = 1  e_4 = 4.87436666
l = 1  e_5 = 23.7968646
l = 1  e_6 = 113.453187
l = 2  e_0 = 0.317728475
l = 2  e_1 = 1.06596943
l = 2  e_2 = 2.94446392
l = 2  e_3 = 9.27246973
l = 2  e_4 = 39.9253652
l = 3  e_0 = 1.12838688
l = 3  e_1 = 3.42832819
l = 3  e_2 = 9.09240877
l = 0  occ = 2 + 0
l = 1  occ = 0 + 1.667
l = 2  occ = 0 + 0
l = 3  occ = 0 + 0
E1 = -138.8428093558537  E_coul = 39.78449154599223
cycle= 19 E= -99.0583178098614  delta_E= 3.41e-13  |g|=    0  |ddm|= 2.81e-10
    CPU time for cycle= 19      0.02 sec, wall time      0.01 sec
diis-norm(errvec)=9.77814e-10
Linear dependence found in DIIS error vectors.
diis-c [-2.89052492e-16  1.25000000e-01  1.25000000e-01  1.25000000e-01
  1.25000000e-01  1.25000000e-01  1.25000000e-01  1.25000000e-01
  1.25000000e-01]
l = 0  e_0 = -26.4682044
l = 0  e_1 = -1.61141458
l = 0  e_2 = 0.0457536991
l = 0  e_3 = 0.295766041
l = 0  e_4 = 1.46116191
l = 0  e_5 = 6.29738242
l = 0  e_6 = 27.6528581
l = 0  e_7 = 134.256297
l = 1  e_0 = -0.622917648
l = 1  e_1 = 0.0487594285
l = 1  e_2 = 0.249971573
l = 1  e_3 = 1.14433547
l = 1  e_4 = 4.87436666
l = 1  e_5 = 23.7968646
l = 1  e_6 = 113.453187
l = 2  e_0 = 0.317728475
l = 2  e_1 = 1.06596943
l = 2  e_2 = 2.94446392
l = 2  e_3 = 9.27246973
l = 2  e_4 = 39.9253652
l = 3  e_0 = 1.12838688
l = 3  e_1 = 3.42832819
l = 3  e_2 = 9.09240877
l = 0  occ = 2 + 0
l = 1  occ = 0 + 1.667
l = 2  occ = 0 + 0
l = 3  occ = 0 + 0
E1 = -138.84280935574643  E_coul = 39.78449154588479
cycle= 20 E= -99.0583178098616  delta_E= -1.85e-13  |g|=    0  |ddm|= 7.64e-11
    CPU time for cycle= 20      0.02 sec, wall time      0.01 sec
l = 0  e_0 = -26.4682044
l = 0  e_1 = -1.61141458
l = 0  e_2 = 0.0457536991
l = 0  e_3 = 0.295766041
l = 0  e_4 = 1.46116191
l = 0  e_5 = 6.29738242
l = 0  e_6 = 27.6528581
l = 0  e_7 = 134.256297
l = 1  e_0 = -0.622917647
l = 1  e_1 = 0.0487594285
l = 1  e_2 = 0.249971573
l = 1  e_3 = 1.14433547
l = 1  e_4 = 4.87436666
l = 1  e_5 = 23.7968646
l = 1  e_6 = 113.453187
l = 2  e_0 = 0.317728475
l = 2  e_1 = 1.06596943
l = 2  e_2 = 2.94446392
l = 2  e_3 = 9.27246973
l = 2  e_4 = 39.9253652
l = 3  e_0 = 1.12838688
l = 3  e_1 = 3.42832819
l = 3  e_2 = 9.09240877
l = 0  occ = 2 + 0
l = 1  occ = 0 + 1.667
l = 2  occ = 0 + 0
l = 3  occ = 0 + 0
E1 = -138.8428093534946  E_coul = 39.78449154363291
Extra cycle  E= -99.0583178098617  delta_E= -5.68e-14  |g|=    0  |ddm|= 7.64e-11
    CPU time for scf_cycle      0.73 sec, wall time      0.25 sec
    CPU time for SCF      0.73 sec, wall time      0.25 sec
Atomic HF for atom  F  converged. SCF energy = -99.0583178098617

Atom F, E = -99.0583178099
Nelec from initial guess = (np.float64(4.499999999999999), np.float64(4.499999999999999))
E1 = -138.8428093534946  Ecoul = 39.78449154363291
init E= -99.0583178098617
    CPU time for initialize scf      0.93 sec, wall time      0.33 sec
alpha HOMO (B2u) = -0.622917647394075  LUMO (Ag) = 0.0457536991464193
alpha irrep_nelec = [2, 0, 0, 0, 0, 1, 1, 1]
beta  irrep_nelec = [2, 0, 0, 0, 0, 0, 1, 1]
alpha-Ag nocc = 2  HOMO = -1.61141458130486  LUMO = 0.0457536991464193
   mo_energy = [-2.64682044e+01 -1.61141458e+00  4.57536991e-02  2.95766041e-01
  3.17728475e-01  3.17728475e-01  1.06596943e+00  1.06596943e+00
  1.46116191e+00  2.94446392e+00  2.94446392e+00  6.29738242e+00
  9.27246973e+00  9.27246973e+00  2.76528581e+01  3.99253652e+01
  3.99253652e+01  1.34256297e+02]
alpha-B1g nocc = 0
   mo_energy = [ 0.31772848  1.06596943  2.94446392  9.27246973 39.92536522]
alpha-B2g nocc = 0
   mo_energy = [ 0.31772848  1.06596943  2.94446392  9.27246973 39.92536522]
alpha-B3g nocc = 0
   mo_energy = [ 0.31772848  1.06596943  2.94446392  9.27246973 39.92536522]
alpha-Au nocc = 0
   mo_energy = [1.12838688 3.42832819 9.09240877]
alpha-B1u nocc = 1  HOMO = -0.622917647394078  LUMO = 0.0487594284941317
   mo_energy = [-6.22917647e-01  4.87594285e-02  2.49971573e-01  1.12838688e+00
  1.12838688e+00  1.14433547e+00  3.42832819e+00  3.42832819e+00
  4.87436666e+00  9.09240877e+00  9.09240877e+00  2.37968646e+01
  1.13453187e+02]
alpha-B2u nocc = 1  HOMO = -0.622917647394075  LUMO = 0.0487594284941316
   mo_energy = [-6.22917647e-01  4.87594285e-02  2.49971573e-01  1.12838688e+00
  1.12838688e+00  1.14433547e+00  3.42832819e+00  3.42832819e+00
  4.87436666e+00  9.09240877e+00  9.09240877e+00  2.37968646e+01
  1.13453187e+02]
alpha-B3u nocc = 1  HOMO = -0.622917647394076  LUMO = 0.0487594284941319
   mo_energy = [-6.22917647e-01  4.87594285e-02  2.49971573e-01  1.12838688e+00
  1.12838688e+00  1.14433547e+00  3.42832819e+00  3.42832819e+00
  4.87436666e+00  9.09240877e+00  9.09240877e+00  2.37968646e+01
  1.13453187e+02]
beta-Ag nocc = 2  HOMO = -1.61141458130486  LUMO = 0.0457536991464193
   mo_energy = [-2.64682044e+01 -1.61141458e+00  4.57536991e-02  2.95766041e-01
  3.17728475e-01  3.17728475e-01  1.06596943e+00  1.06596943e+00
  1.46116191e+00  2.94446392e+00  2.94446392e+00  6.29738242e+00
  9.27246973e+00  9.27246973e+00  2.76528581e+01  3.99253652e+01
  3.99253652e+01  1.34256297e+02]
beta-B1g nocc = 0
   mo_energy = [ 0.31772848  1.06596943  2.94446392  9.27246973 39.92536522]
beta-B2g nocc = 0
   mo_energy = [ 0.31772848  1.06596943  2.94446392  9.27246973 39.92536522]
beta-B3g nocc = 0
   mo_energy = [ 0.31772848  1.06596943  2.94446392  9.27246973 39.92536522]
beta-Au nocc = 0
   mo_energy = [1.12838688 3.42832819 9.09240877]
beta-B1u nocc = 0
   mo_energy = [-6.22917647e-01  4.87594285e-02  2.49971573e-01  1.12838688e+00
  1.12838688e+00  1.14433547e+00  3.42832819e+00  3.42832819e+00
  4.87436666e+00  9.09240877e+00  9.09240877e+00  2.37968646e+01
  1.13453187e+02]
beta-B2u nocc = 1  HOMO = -0.622917647394075  LUMO = 0.0487594284941316
   mo_energy = [-6.22917647e-01  4.87594285e-02  2.49971573e-01  1.12838688e+00
  1.12838688e+00  1.14433547e+00  3.42832819e+00  3.42832819e+00
  4.87436666e+00  9.09240877e+00  9.09240877e+00  2.37968646e+01
  1.13453187e+02]
beta-B3u nocc = 1  HOMO = -0.622917647394076  LUMO = 0.0487594284941319
   mo_energy = [-6.22917647e-01  4.87594285e-02  2.49971573e-01  1.12838688e+00
  1.12838688e+00  1.14433547e+00  3.42832819e+00  3.42832819e+00
  4.87436666e+00  9.09240877e+00  9.09240877e+00  2.37968646e+01
  1.13453187e+02]
multiplicity <S^2> = 0.75  2S+1 = 2
E1 = -138.84280935469587  Ecoul = 39.446099329400894
cycle= 1 E= -99.396710025295  delta_E= -0.338  |g|= 0.182  |ddm|= 0.798
    CPU time for cycle= 1      0.07 sec, wall time      0.02 sec
diis-norm(errvec)=0.257811
diis-c [-0.06646658  1.        ]
alpha HOMO (B3u) = -0.759371046063078  LUMO (Ag) = 0.0450825050363479
alpha irrep_nelec = [2, 0, 0, 0, 0, 1, 1, 1]
beta  irrep_nelec = [2, 0, 0, 0, 0, 0, 1, 1]
alpha-Ag nocc = 2  HOMO = -1.70068161525138  LUMO = 0.0450825050363479
   mo_energy = [-2.64884361e+01 -1.70068162e+00  4.50825050e-02  2.89974234e-01
  3.14510044e-01  3.20163134e-01  1.04051654e+00  1.07032951e+00
  1.44614757e+00  2.88259552e+00  2.95015583e+00  6.27458067e+00
  9.19011399e+00  9.28850832e+00  2.76377555e+01  3.98674001e+01
  3.99486904e+01  1.34251730e+02]
alpha-B1g nocc = 0
   mo_energy = [ 0.32016313  1.07032951  2.95015583  9.28850832 39.94869044]
alpha-B2g nocc = 0
   mo_energy = [ 0.31506748  1.04821422  2.89907907  9.21395715 39.88752301]
alpha-B3g nocc = 0
   mo_energy = [ 0.31506748  1.04821422  2.89907907  9.21395715 39.88752301]
alpha-Au nocc = 0
   mo_energy = [1.12656718 3.41892938 9.07320988]
alpha-B1u nocc = 1  HOMO = -0.850293499553805  LUMO = 0.047545260251213
   mo_energy = [-8.50293500e-01  4.75452603e-02  2.39076787e-01  1.09145425e+00
  1.12189253e+00  1.12656718e+00  3.39581141e+00  3.41892938e+00
  4.78849290e+00  9.03142658e+00  9.07320988e+00  2.37257125e+01
  1.13418934e+02]
alpha-B2u nocc = 1  HOMO = -0.75937104606308  LUMO = 0.0489928256282472
   mo_energy = [-7.59371046e-01  4.89928256e-02  2.49006763e-01  1.11798353e+00
  1.13615562e+00  1.13964020e+00  3.40160937e+00  3.44772006e+00
  4.87030135e+00  9.04184378e+00  9.12590255e+00  2.38040669e+01
  1.13461925e+02]
alpha-B3u nocc = 1  HOMO = -0.759371046063078  LUMO = 0.048992825628245
   mo_energy = [-7.59371046e-01  4.89928256e-02  2.49006763e-01  1.11798353e+00
  1.13615562e+00  1.13964020e+00  3.40160937e+00  3.44772006e+00
  4.87030135e+00  9.04184378e+00  9.12590255e+00  2.38040669e+01
  1.13461925e+02]
beta-Ag nocc = 2  HOMO = -1.5249298207648  LUMO = 0.0463345038522173
   mo_energy = [-2.64480771e+01 -1.52492982e+00  4.63345039e-02  2.99845465e-01
  3.17263647e-01  3.20519824e-01  1.07440054e+00  1.07811776e+00
  1.47674892e+00  2.96212879e+00  2.98456144e+00  6.31991415e+00
  9.30398910e+00  9.30892178e+00  2.76677327e+01  3.99282476e+01
  3.99574660e+01  1.34260867e+02]
beta-B1g nocc = 0
   mo_energy = [ 0.32051982  1.07440054  2.96212879  9.3039891  39.95746604]
beta-B2g nocc = 0
   mo_energy = [ 0.31772061  1.07698291  2.97833622  9.30743009 39.93550379]
beta-B3g nocc = 0
   mo_energy = [ 0.31772061  1.07698291  2.97833622  9.30743009 39.93550379]
beta-Au nocc = 0
   mo_energy = [1.13019986 3.43771472 9.11162668]
beta-B1u nocc = 0
   mo_energy = [2.70619767e-03 5.60268619e-02 2.84361034e-01 1.12453083e+00
 1.13019986e+00 1.22144964e+00 3.42666649e+00 3.43771472e+00
 4.93854804e+00 9.09396073e+00 9.11162668e+00 2.38098134e+01
 1.13442419e+02]
beta-B2u nocc = 1  HOMO = -0.714065511712781  LUMO = 0.0490991599740006
   mo_energy = [-7.14065512e-01  4.90991600e-02  2.51046546e-01  1.12530469e+00
  1.13685880e+00  1.14984191e+00  3.42943074e+00  3.45149501e+00
  4.89132798e+00  9.09837458e+00  9.13374938e+00  2.38188490e+01
  1.13466964e+02]
beta-B3u nocc = 1  HOMO = -0.714065511712778  LUMO = 0.0490991599739981
   mo_energy = [-7.14065512e-01  4.90991600e-02  2.51046546e-01  1.12530469e+00
  1.13685880e+00  1.14984191e+00  3.42943074e+00  3.45149501e+00
  4.89132798e+00  9.09837458e+00  9.13374938e+00  2.38188490e+01
  1.13466964e+02]
multiplicity <S^2> = 0.75167777  2S+1 = 2.0016771
E1 = -139.3453395287934  Ecoul = 39.93955611007822
cycle= 2 E= -99.4057834187152  delta_E= -0.00907  |g|= 0.0602  |ddm|= 0.0782
    CPU time for cycle= 2      0.07 sec, wall time      0.02 sec
diis-norm(errvec)=0.0851259
diis-c [-0.00723828  0.01158805  0.98841195]
alpha HOMO (B2u) = -0.72088446619484  LUMO (Ag) = 0.0458382862713925
alpha irrep_nelec = [2, 0, 0, 0, 0, 1, 1, 1]
beta  irrep_nelec = [2, 0, 0, 0, 0, 0, 1, 1]
alpha-Ag nocc = 2  HOMO = -1.66150968397431  LUMO = 0.0458382862713925
   mo_energy = [-2.63796569e+01 -1.66150968e+00  4.58382863e-02  2.94856523e-01
  3.15856101e-01  3.21160076e-01  1.05030048e+00  1.07924851e+00
  1.46373836e+00  2.90566817e+00  2.97591352e+00  6.32116095e+00
  9.24339538e+00  9.34494773e+00  2.77238623e+01  3.99623719e+01
  4.00445604e+01  1.34360327e+02]
alpha-B1g nocc = 0
   mo_energy = [ 0.32116008  1.07924851  2.97591352  9.34494773 40.04456036]
alpha-B2g nocc = 0
   mo_energy = [ 0.31633832  1.05763043  2.92259829  9.26792124 39.98271147]
alpha-B3g nocc = 0
   mo_energy = [ 0.31633832  1.05763043  2.92259829  9.26792124 39.98271147]
alpha-Au nocc = 0
   mo_energy = [1.12948179 3.43352063 9.11251149]
alpha-B1u nocc = 1  HOMO = -0.8267554543364  LUMO = 0.0476496233249942
   mo_energy = [-8.26755454e-01  4.76496233e-02  2.40792718e-01  1.10325280e+00
  1.12599807e+00  1.12948179e+00  3.41064709e+00  3.43352063e+00
  4.83332989e+00  9.07031226e+00  9.11251149e+00  2.38137658e+01
  1.13528914e+02]
alpha-B2u nocc = 1  HOMO = -0.72088446619484  LUMO = 0.0490849162803696
   mo_energy = [-7.20884466e-01  4.90849163e-02  2.51038282e-01  1.12239016e+00
  1.13872571e+00  1.15390024e+00  3.41638059e+00  3.46208371e+00
  4.91908510e+00  9.08082962e+00  9.16578990e+00  2.38940094e+01
  1.13572156e+02]
alpha-B3u nocc = 1  HOMO = -0.720884466194845  LUMO = 0.0490849162803685
   mo_energy = [-7.20884466e-01  4.90849163e-02  2.51038282e-01  1.12239016e+00
  1.13872571e+00  1.15390024e+00  3.41638059e+00  3.46208371e+00
  4.91908510e+00  9.08082962e+00  9.16578990e+00  2.38940094e+01
  1.13572156e+02]
beta-Ag nocc = 2  HOMO = -1.47565023110515  LUMO = 0.0468392922173036
   mo_energy = [-2.63362718e+01 -1.47565023e+00  4.68392922e-02  3.03706668e-01
  3.18053647e-01  3.21086306e-01  1.08049641e+00  1.08514052e+00
  1.49608235e+00  2.98542191e+00  3.01371272e+00  6.37125585e+00
  9.36160893e+00  9.37400958e+00  2.77569451e+01  4.00286928e+01
  4.00546075e+01  1.34370147e+02]
beta-B1g nocc = 0
   mo_energy = [ 0.32108631  1.08049641  2.98542191  9.36160893 40.05460746]
beta-B2g nocc = 0
   mo_energy = [ 0.31829446  1.08367255  3.00575331  9.37058193 40.03512892]
beta-B3g nocc = 0
   mo_energy = [ 0.31829446  1.08367255  3.00575331  9.37058193 40.03512892]
beta-Au nocc = 0
   mo_energy = [1.13211722 3.45109242 9.15336033]
beta-B1u nocc = 0
   mo_energy = [2.81205708e-02 6.74217421e-02 2.97551018e-01 1.12665523e+00
 1.13211722e+00 1.24952888e+00 3.44113890e+00 3.45109242e+00
 4.99790018e+00 9.13821388e+00 9.15336033e+00 2.39059047e+01
 1.13554396e+02]
beta-B2u nocc = 1  HOMO = -0.675654464579738  LUMO = 0.0491941788102418
   mo_energy = [-6.75654465e-01  4.91941788e-02  2.53105106e-01  1.12767802e+00
  1.13859593e+00  1.16547654e+00  3.44363045e+00  3.46348607e+00
  4.94146017e+00  9.14199914e+00  9.17231140e+00  2.39103709e+01
  1.13577657e+02]
beta-B3u nocc = 1  HOMO = -0.67565446457974  LUMO = 0.0491941788102415
   mo_energy = [-6.75654465e-01  4.91941788e-02  2.53105106e-01  1.12767802e+00
  1.13859593e+00  1.16547654e+00  3.44363045e+00  3.46348607e+00
  4.94146017e+00  9.14199914e+00  9.17231140e+00  2.39103709e+01
  1.13577657e+02]
multiplicity <S^2> = 0.75296188  2S+1 = 2.0029597
E1 = -139.1604566333184  Ecoul = 39.75368881956591
cycle= 3 E= -99.4067678137525  delta_E= -0.000984  |g|= 0.0208  |ddm|= 0.0296
    CPU time for cycle= 3      0.07 sec, wall time      0.02 sec
diis-norm(errvec)=0.0294735
diis-c [-3.26168769e-04 -8.11216146e-02  1.64169481e-01  9.16952134e-01]
alpha HOMO (B2u) = -0.730232426507841  LUMO (Ag) = 0.0458312252339964
alpha irrep_nelec = [2, 0, 0, 0, 0, 1, 1, 1]
beta  irrep_nelec = [2, 0, 0, 0, 0, 0, 1, 1]
alpha-Ag nocc = 2  HOMO = -1.6724377241401  LUMO = 0.0458312252339964
   mo_energy = [-2.64101543e+01 -1.67243772e+00  4.58312252e-02  2.94523092e-01
  3.15856881e-01  3.21264467e-01  1.04960329e+00  1.07872655e+00
  1.46042569e+00  2.89989734e+00  2.97122603e+00  6.30984245e+00
  9.22893243e+00  9.33068847e+00  2.77013415e+01  3.99376073e+01
  4.00185403e+01  1.34329679e+02]
alpha-B1g nocc = 0
   mo_energy = [ 0.32126447  1.07872655  2.97122603  9.33068847 40.01854027]
alpha-B2g nocc = 0
   mo_energy = [ 0.3163786   1.05691481  2.91700034  9.25346234 39.95762354]
alpha-B3g nocc = 0
   mo_energy = [ 0.3163786   1.05691481  2.91700034  9.25346234 39.95762354]
alpha-Au nocc = 0
   mo_energy = [1.12948725 3.43163296 9.10371816]
alpha-B1u nocc = 1  HOMO = -0.842292827129772  LUMO = 0.0475948467521638
   mo_energy = [-8.42292827e-01  4.75948468e-02  2.40131481e-01  1.09927677e+00
  1.12530214e+00  1.12948725e+00  3.40858780e+00  3.43163296e+00
  4.82003424e+00  9.06155674e+00  9.10371816e+00  2.37901990e+01
  1.13498944e+02]
alpha-B2u nocc = 1  HOMO = -0.730232426507841  LUMO = 0.0490800008840213
   mo_energy = [-7.30232427e-01  4.90800009e-02  2.50724886e-01  1.12211441e+00
  1.13888640e+00  1.15087206e+00  3.41435966e+00  3.46049139e+00
  4.90690150e+00  9.07205849e+00  9.15705010e+00  2.38698682e+01
  1.13541289e+02]
alpha-B3u nocc = 1  HOMO = -0.730232426507846  LUMO = 0.0490800008840195
   mo_energy = [-7.30232427e-01  4.90800009e-02  2.50724886e-01  1.12211441e+00
  1.13888640e+00  1.15087206e+00  3.41435966e+00  3.46049139e+00
  4.90690150e+00  9.07205849e+00  9.15705010e+00  2.38698682e+01
  1.13541289e+02]
beta-Ag nocc = 2  HOMO = -1.48150447925056  LUMO = 0.0467708327899401
   mo_energy = [-2.63651261e+01 -1.48150448e+00  4.67708328e-02  3.03168309e-01
  3.17868830e-01  3.20966000e-01  1.07861175e+00  1.08387896e+00
  1.49354205e+00  2.98009931e+00  3.00978575e+00  6.36191287e+00
  9.34889445e+00  9.36262307e+00  2.77358556e+01  4.00051683e+01
  4.00296442e+01  1.34340119e+02]
beta-B1g nocc = 0
   mo_energy = [ 0.320966    1.07861175  2.98009931  9.34889445 40.02964418]
beta-B2g nocc = 0
   mo_energy = [ 0.31812638  1.08227541  3.00156428  9.35891805 40.01124503]
beta-B3g nocc = 0
   mo_energy = [ 0.31812638  1.08227541  3.00156428  9.35891805 40.01124503]
beta-Au nocc = 0
   mo_energy = [1.13175367 3.44878826 9.14554262]
beta-B1u nocc = 0
   mo_energy = [2.58826220e-02 6.54111353e-02 2.95793638e-01 1.12619433e+00
 1.13175367e+00 1.24533394e+00 3.43905046e+00 3.44878826e+00
 4.98673753e+00 9.13111245e+00 9.14554262e+00 2.38840327e+01
 1.13525049e+02]
beta-B2u nocc = 1  HOMO = -0.682983304109706  LUMO = 0.0491949547114126
   mo_energy = [-6.82983304e-01  4.91949547e-02  2.52882093e-01  1.12721675e+00
  1.13832277e+00  1.16290123e+00  3.44149320e+00  3.46084214e+00
  4.93055521e+00  9.13472430e+00  9.16351507e+00  2.38874266e+01
  1.13547348e+02]
beta-B3u nocc = 1  HOMO = -0.682983304109712  LUMO = 0.0491949547114122
   mo_energy = [-6.82983304e-01  4.91949547e-02  2.52882093e-01  1.12721675e+00
  1.13832277e+00  1.16290123e+00  3.44149320e+00  3.46084214e+00
  4.93055521e+00  9.13472430e+00  9.16351507e+00  2.38874266e+01
  1.13547348e+02]
multiplicity <S^2> = 0.75361943  2S+1 = 2.0036162
E1 = -139.2169446491576  Ecoul = 39.80999980272814
cycle= 4 E= -99.4069448464295  delta_E= -0.000177  |g|= 0.00549  |ddm|= 0.0149
    CPU time for cycle= 4      0.07 sec, wall time      0.02 sec
diis-norm(errvec)=0.00776781
diis-c [-2.62603701e-05  2.99804989e-02 -9.64195026e-02 -4.00886764e-01
  1.46732577e+00]
alpha HOMO (B3u) = -0.731238443069981  LUMO (Ag) = 0.0458509159085004
alpha irrep_nelec = [2, 0, 0, 0, 0, 1, 1, 1]
beta  irrep_nelec = [2, 0, 0, 0, 0, 0, 1, 1]
alpha-Ag nocc = 2  HOMO = -1.673842947209  LUMO = 0.0458509159085004
   mo_energy = [-2.64105903e+01 -1.67384295e+00  4.58509159e-02  2.94588657e-01
  3.15907061e-01  3.21367692e-01  1.04991503e+00  1.07911625e+00
  1.46021900e+00  2.89951491e+00  2.97117225e+00  6.30913606e+00
  9.22789098e+00  9.32974178e+00  2.77009709e+01  3.99375831e+01
  4.00180849e+01  1.34329950e+02]
alpha-B1g nocc = 0
   mo_energy = [ 0.32136769  1.07911625  2.97117225  9.32974178 40.01808489]
alpha-B2g nocc = 0
   mo_energy = [ 0.31642678  1.05721702  2.91666709  9.25241712 39.95748184]
alpha-B3g nocc = 0
   mo_energy = [ 0.31642678  1.05721702  2.91666709  9.25241712 39.95748184]
alpha-Au nocc = 0
   mo_energy = [1.12959772 3.43174738 9.1032813 ]
alpha-B1u nocc = 1  HOMO = -0.845099200770339  LUMO = 0.047567073267727
   mo_energy = [-8.45099201e-01  4.75670733e-02  2.39897442e-01  1.09838553e+00
  1.12525849e+00  1.12959772e+00  3.40859862e+00  3.43174738e+00
  4.81881814e+00  9.06112434e+00  9.10328130e+00  2.37900015e+01
  1.13499473e+02]
alpha-B2u nocc = 1  HOMO = -0.731238443069983  LUMO = 0.0490850159137625
   mo_energy = [-7.31238443e-01  4.90850159e-02  2.50713256e-01  1.12211393e+00
  1.13911603e+00  1.15067728e+00  3.41439237e+00  3.46079599e+00
  4.90627384e+00  9.07162035e+00  9.15668248e+00  2.38694795e+01
  1.13541491e+02]
alpha-B3u nocc = 1  HOMO = -0.731238443069981  LUMO = 0.0490850159137636
   mo_energy = [-7.31238443e-01  4.90850159e-02  2.50713256e-01  1.12211393e+00
  1.13911603e+00  1.15067728e+00  3.41439237e+00  3.46079599e+00
  4.90627384e+00  9.07162035e+00  9.15668248e+00  2.38694795e+01
  1.13541491e+02]
beta-Ag nocc = 2  HOMO = -1.47971996953141  LUMO = 0.0467565273433953
   mo_energy = [-2.63635640e+01 -1.47971997e+00  4.67565273e-02  3.03113129e-01
  3.17778511e-01  3.20927456e-01  1.07818147e+00  1.08343052e+00
  1.49383628e+00  2.98016469e+00  3.00971603e+00  6.36272495e+00
  9.34981433e+00  9.36354137e+00  2.77367990e+01  4.00062945e+01
  4.00303278e+01  1.34341099e+02]
beta-B1g nocc = 0
   mo_energy = [ 0.32092746  1.07818147  2.98016469  9.34981433 40.03032784]
beta-B2g nocc = 0
   mo_energy = [ 0.31804128  1.08189782  3.00167497  9.35988948 40.01225884]
beta-B3g nocc = 0
   mo_energy = [ 0.31804128  1.08189782  3.00167497  9.35988948 40.01225884]
beta-Au nocc = 0
   mo_energy = [1.13161515 3.44851702 9.14574885]
beta-B1u nocc = 0
   mo_energy = [2.59726238e-02 6.55438511e-02 2.95977196e-01 1.12596403e+00
 1.13161515e+00 1.24561488e+00 3.43868199e+00 3.44851702e+00
 4.98733279e+00 9.13133332e+00 9.14574885e+00 2.38851564e+01
 1.13526213e+02]
beta-B2u nocc = 1  HOMO = -0.681233643971252  LUMO = 0.0492101947446331
   mo_energy = [-6.81233644e-01  4.92101947e-02  2.53032512e-01  1.12701434e+00
  1.13827915e+00  1.16354687e+00  3.44115382e+00  3.46062820e+00
  4.93149363e+00  9.13494584e+00  9.16363871e+00  2.38883137e+01
  1.13548183e+02]
beta-B3u nocc = 1  HOMO = -0.681233643971259  LUMO = 0.0492101947446346
   mo_energy = [-6.81233644e-01  4.92101947e-02  2.53032512e-01  1.12701434e+00
  1.13827915e+00  1.16354687e+00  3.44115382e+00  3.46062820e+00
  4.93149363e+00  9.13494584e+00  9.16363871e+00  2.38883137e+01
  1.13548183e+02]
multiplicity <S^2> = 0.75401188  2S+1 = 2.0040079
E1 = -139.2167674265591  Ecoul = 39.80979532228247
cycle= 5 E= -99.4069721042766  delta_E= -2.73e-05  |g|= 0.00158  |ddm|= 0.00593
    CPU time for cycle= 5      0.07 sec, wall time      0.02 sec
diis-norm(errvec)=0.0022307
diis-c [-7.43968496e-07 -5.69026189e-03  2.92046141e-02  1.07301456e-01
 -6.85100786e-01  1.55428498e+00]
alpha HOMO (B3u) = -0.731866352549449  LUMO (Ag) = 0.0458565317004961
alpha irrep_nelec = [2, 0, 0, 0, 0, 1, 1, 1]
beta  irrep_nelec = [2, 0, 0, 0, 0, 0, 1, 1]
alpha-Ag nocc = 2  HOMO = -1.67442499374967  LUMO = 0.0458565317004961
   mo_energy = [-2.64107571e+01 -1.67442499e+00  4.58565317e-02  2.94602432e-01
  3.15926200e-01  3.21400578e-01  1.05002920e+00  1.07924968e+00
  1.46013476e+00  2.89948849e+00  2.97106479e+00  6.30889879e+00
  9.22767168e+00  9.32934539e+00  2.77008597e+01  3.99376088e+01
  4.00179095e+01  1.34329954e+02]
alpha-B1g nocc = 0
   mo_energy = [ 0.32140058  1.07924968  2.97106479  9.32934539 40.01790953]
alpha-B2g nocc = 0
   mo_energy = [ 0.31644295  1.05733861  2.91662451  9.25216171 39.95746082]
alpha-B3g nocc = 0
   mo_energy = [ 0.31644295  1.05733861  2.91662451  9.25216171 39.95746082]
alpha-Au nocc = 0
   mo_energy = [1.12963418 3.43180042 9.10318759]
alpha-B1u nocc = 1  HOMO = -0.845597960928493  LUMO = 0.0475623632624812
   mo_energy = [-8.45597961e-01  4.75623633e-02  2.39865319e-01  1.09823618e+00
  1.12527006e+00  1.12963418e+00  3.40864541e+00  3.43180042e+00
  4.81862632e+00  9.06108469e+00  9.10318759e+00  2.37899967e+01
  1.13499575e+02]
alpha-B2u nocc = 1  HOMO = -0.731866352549455  LUMO = 0.049085349572977
   mo_energy = [-7.31866353e-01  4.90853496e-02  2.50692895e-01  1.12211170e+00
  1.13917937e+00  1.15053574e+00  3.41444113e+00  3.46085115e+00
  4.90598404e+00  9.07156812e+00  9.15650610e+00  2.38693065e+01
  1.13541471e+02]
alpha-B3u nocc = 1  HOMO = -0.731866352549449  LUMO = 0.0490853495729767
   mo_energy = [-7.31866353e-01  4.90853496e-02  2.50692895e-01  1.12211170e+00
  1.13917937e+00  1.15053574e+00  3.41444113e+00  3.46085115e+00
  4.90598404e+00  9.07156812e+00  9.15650610e+00  2.38693065e+01
  1.13541471e+02]
beta-Ag nocc = 2  HOMO = -1.47916382075536  LUMO = 0.046744429869391
   mo_energy = [-2.63631279e+01 -1.47916382e+00  4.67444299e-02  3.03070492e-01
  3.17738873e-01  3.20894642e-01  1.07801645e+00  1.08329282e+00
  1.49389714e+00  2.98028785e+00  3.00974497e+00  6.36302272e+00
  9.35029452e+00  9.36393269e+00  2.77371287e+01  4.00066808e+01
  4.00306402e+01  1.34341303e+02]
beta-B1g nocc = 0
   mo_energy = [ 0.32089464  1.07801645  2.98028785  9.35029452 40.03064021]
beta-B2g nocc = 0
   mo_energy = [ 0.31800616  1.08174525  3.00170218  9.36029154 40.01262729]
beta-B3g nocc = 0
   mo_energy = [ 0.31800616  1.08174525  3.00170218  9.36029154 40.01262729]
beta-Au nocc = 0
   mo_energy = [1.13155038 3.4484179  9.14588446]
beta-B1u nocc = 0
   mo_energy = [2.59497472e-02 6.55451727e-02 2.96008488e-01 1.12588833e+00
 1.13155038e+00 1.24568874e+00 3.43857143e+00 3.44841790e+00
 4.98753510e+00 9.13147015e+00 9.14588446e+00 2.38854913e+01
 1.13526474e+02]
beta-B2u nocc = 1  HOMO = -0.680342352210243  LUMO = 0.0492149522473194
   mo_energy = [-6.80342352e-01  4.92149522e-02  2.53085705e-01  1.12694636e+00
  1.13822760e+00  1.16380678e+00  3.44104548e+00  3.46055084e+00
  4.93193281e+00  9.13508140e+00  9.16378656e+00  2.38886635e+01
  1.13548368e+02]
beta-B3u nocc = 1  HOMO = -0.680342352210249  LUMO = 0.0492149522473191
   mo_energy = [-6.80342352e-01  4.92149522e-02  2.53085705e-01  1.12694636e+00
  1.13822760e+00  1.16380678e+00  3.44104548e+00  3.46055084e+00
  4.93193281e+00  9.13508140e+00  9.16378656e+00  2.38886635e+01
  1.13548368e+02]
multiplicity <S^2> = 0.75415978  2S+1 = 2.0041555
E1 = -139.2162088633292  Ecoul = 39.809234230757866
cycle= 6 E= -99.4069746325713  delta_E= -2.53e-06  |g|= 0.000249  |ddm|= 0.00194
    CPU time for cycle= 6      0.07 sec, wall time      0.02 sec
diis-norm(errvec)=0.000352603
diis-c [-4.42399003e-08  1.51231139e-03 -7.62842176e-03 -3.03879655e-02
  2.10704869e-01 -5.88830936e-01  1.41463014e+00]
alpha HOMO (B2u) = -0.732025224371985  LUMO (Ag) = 0.045857375435223
alpha irrep_nelec = [2, 0, 0, 0, 0, 1, 1, 1]
beta  irrep_nelec = [2, 0, 0, 0, 0, 0, 1, 1]
alpha-Ag nocc = 2  HOMO = -1.67450998880099  LUMO = 0.045857375435223
   mo_energy = [-2.64108330e+01 -1.67450999e+00  4.58573754e-02  2.94602644e-01
  3.15929767e-01  3.21404448e-01  1.05002865e+00  1.07926658e+00
  1.46012003e+00  2.89946820e+00  2.97102405e+00  6.30884580e+00
  9.22762007e+00  9.32924805e+00  2.77007931e+01  3.99375389e+01
  4.00178268e+01  1.34329907e+02]
alpha-B1g nocc = 0
   mo_energy = [ 0.32140445  1.07926658  2.97102405  9.32924805 40.01782682]
alpha-B2g nocc = 0
   mo_energy = [ 0.31644518  1.05734586  2.91660314  9.25210109 39.95738806]
alpha-B3g nocc = 0
   mo_energy = [ 0.31644518  1.05734586  2.91660314  9.25210109 39.95738806]
alpha-Au nocc = 0
   mo_energy = [1.12963817 3.43179812 9.10314839]
alpha-B1u nocc = 1  HOMO = -0.845554529408787  LUMO = 0.0475629940732511
   mo_energy = [-8.45554529e-01  4.75629941e-02  2.39869735e-01  1.09824772e+00
  1.12527618e+00  1.12963817e+00  3.40864172e+00  3.43179812e+00
  4.81861756e+00  9.06105015e+00  9.10314839e+00  2.37899445e+01
  1.13499520e+02]
alpha-B2u nocc = 1  HOMO = -0.732025224371985  LUMO = 0.0490845513538879
   mo_energy = [-7.32025224e-01  4.90845514e-02  2.50682833e-01  1.12211042e+00
  1.13918289e+00  1.15048933e+00  3.41443806e+00  3.46084599e+00
  4.90589564e+00  9.07153265e+00  9.15645719e+00  2.38692240e+01
  1.13541417e+02]
alpha-B3u nocc = 1  HOMO = -0.732025224371987  LUMO = 0.0490845513538901
   mo_energy = [-7.32025224e-01  4.90845514e-02  2.50682833e-01  1.12211042e+00
  1.13918289e+00  1.15048933e+00  3.41443806e+00  3.46084599e+00
  4.90589564e+00  9.07153265e+00  9.15645719e+00  2.38692240e+01
  1.13541417e+02]
beta-Ag nocc = 2  HOMO = -1.47913264562233  LUMO = 0.0467421345587272
   mo_energy = [-2.63631581e+01 -1.47913265e+00  4.67421346e-02  3.03064147e-01
  3.17734460e-01  3.20885891e-01  1.07798767e+00  1.08328363e+00
  1.49389131e+00  2.98029062e+00  3.00973457e+00  6.36301814e+00
  9.35032206e+00  9.36390882e+00  2.77370984e+01  4.00066256e+01
  4.00306297e+01  1.34341264e+02]
beta-B1g nocc = 0
   mo_energy = [ 0.32088589  1.07798767  2.98029062  9.35032206 40.03062974]
beta-B2g nocc = 0
   mo_energy = [ 0.31800249  1.08172624  3.00169073  9.36028078 40.0125833 ]
beta-B3g nocc = 0
   mo_energy = [ 0.31800249  1.08172624  3.00169073  9.36028078 40.0125833 ]
beta-Au nocc = 0
   mo_energy = [1.13154077 3.44840025 9.14587301]
beta-B1u nocc = 0
   mo_energy = [2.59374440e-02 6.55359779e-02 2.96003673e-01 1.12588558e+00
 1.13154077e+00 1.24567626e+00 3.43856045e+00 3.44840025e+00
 4.98750171e+00 9.13145014e+00 9.14587301e+00 2.38854363e+01
 1.13526418e+02]
beta-B2u nocc = 1  HOMO = -0.680261821169193  LUMO = 0.049214936901743
   mo_energy = [-6.80261821e-01  4.92149369e-02  2.53088307e-01  1.12694311e+00
  1.13821156e+00  1.16382316e+00  3.44103256e+00  3.46052914e+00
  4.93195320e+00  9.13506343e+00  9.16378757e+00  2.38886536e+01
  1.13548334e+02]
beta-B3u nocc = 1  HOMO = -0.680261821169195  LUMO = 0.0492149369017398
   mo_energy = [-6.80261821e-01  4.92149369e-02  2.53088307e-01  1.12694311e+00
  1.13821156e+00  1.16382316e+00  3.44103256e+00  3.46052914e+00
  4.93195320e+00  9.13506343e+00  9.16378757e+00  2.38886536e+01
  1.13548334e+02]
multiplicity <S^2> = 0.75418476  2S+1 = 2.0041804
E1 = -139.21630308530274  Ecoul = 39.80932838729045
cycle= 7 E= -99.4069746980123  delta_E= -6.54e-08  |g|= 4.98e-05  |ddm|= 0.000286
    CPU time for cycle= 7      0.07 sec, wall time      0.02 sec
diis-norm(errvec)=7.03741e-05
diis-c [-4.82347641e-10 -1.31394198e-04  6.38245644e-04  4.10013972e-03
 -3.03190356e-02  1.03045955e-01 -4.43839837e-01  1.36650593e+00]
alpha HOMO (B2u) = -0.732040223324421  LUMO (Ag) = 0.0458579553666161
alpha irrep_nelec = [2, 0, 0, 0, 0, 1, 1, 1]
beta  irrep_nelec = [2, 0, 0, 0, 0, 0, 1, 1]
alpha-Ag nocc = 2  HOMO = -1.6745066662365  LUMO = 0.0458579553666161
   mo_energy = [-2.64108205e+01 -1.67450667e+00  4.58579554e-02  2.94604612e-01
  3.15931182e-01  3.21405628e-01  1.05002981e+00  1.07927329e+00
  1.46012470e+00  2.89947324e+00  2.97102808e+00  6.30885355e+00
  9.22763147e+00  9.32925131e+00  2.77008061e+01  3.99375532e+01
  4.00178415e+01  1.34329920e+02]
alpha-B1g nocc = 0
   mo_energy = [ 0.32140563  1.07927329  2.97102808  9.32925131 40.01784149]
alpha-B2g nocc = 0
   mo_energy = [ 0.31644612  1.05734851  2.91660757  9.25211026 39.9574024 ]
alpha-B3g nocc = 0
   mo_energy = [ 0.31644612  1.05734851  2.91660757  9.25211026 39.9574024 ]
alpha-Au nocc = 0
   mo_energy = [1.12964002 3.43180255 9.10315545]
alpha-B1u nocc = 1  HOMO = -0.845528954806362  LUMO = 0.0475633310409179
   mo_energy = [-8.45528955e-01  4.75633310e-02  2.39872792e-01  1.09825817e+00
  1.12527979e+00  1.12964002e+00  3.40864555e+00  3.43180255e+00
  4.81863519e+00  9.06105726e+00  9.10315545e+00  2.37899604e+01
  1.13499532e+02]
alpha-B2u nocc = 1  HOMO = -0.732040223324421  LUMO = 0.049084422686615
   mo_energy = [-7.32040223e-01  4.90844227e-02  2.50681899e-01  1.12211165e+00
  1.13918469e+00  1.15048636e+00  3.41444200e+00  3.46085171e+00
  4.90589555e+00  9.07153970e+00  9.15646500e+00  2.38692352e+01
  1.13541432e+02]
alpha-B3u nocc = 1  HOMO = -0.732040223324424  LUMO = 0.0490844226866134
   mo_energy = [-7.32040223e-01  4.90844227e-02  2.50681899e-01  1.12211165e+00
  1.13918469e+00  1.15048636e+00  3.41444200e+00  3.46085171e+00
  4.90589555e+00  9.07153970e+00  9.15646500e+00  2.38692352e+01
  1.13541432e+02]
beta-Ag nocc = 2  HOMO = -1.47911455013209  LUMO = 0.0467421814177009
   mo_energy = [-2.63631372e+01 -1.47911455e+00  4.67421814e-02  3.03065432e-01
  3.17734640e-01  3.20884941e-01  1.07798573e+00  1.08328649e+00
  1.49389685e+00  2.98029779e+00  3.00974158e+00  6.36303160e+00
  9.35034405e+00  9.36391925e+00  2.77371167e+01  4.00066385e+01
  4.00306562e+01  1.34341279e+02]
beta-B1g nocc = 0
   mo_energy = [ 0.32088494  1.07798573  2.98029779  9.35034405 40.03065616]
beta-B2g nocc = 0
   mo_energy = [ 0.31800277  1.08172826  3.00169864  9.36029421 40.01259961]
beta-B3g nocc = 0
   mo_energy = [ 0.31800277  1.08172826  3.00169864  9.36029421 40.01259961]
beta-Au nocc = 0
   mo_energy = [1.13154098 3.44840366 9.14588378]
beta-B1u nocc = 0
   mo_energy = [2.59417981e-02 6.55394571e-02 2.96007012e-01 1.12588750e+00
 1.13154098e+00 1.24568180e+00 3.43856543e+00 3.44840366e+00
 4.98751003e+00 9.13145855e+00 9.14588378e+00 2.38854463e+01
 1.13526430e+02]
beta-B2u nocc = 1  HOMO = -0.680243021168849  LUMO = 0.049214908126967
   mo_energy = [-6.80243021e-01  4.92149081e-02  2.53089027e-01  1.12694491e+00
  1.13820989e+00  1.16382902e+00  3.44103718e+00  3.46053008e+00
  4.93196973e+00  9.13507244e+00  9.16380106e+00  2.38886762e+01
  1.13548353e+02]
beta-B3u nocc = 1  HOMO = -0.680243021168844  LUMO = 0.0492149081269651
   mo_energy = [-6.80243021e-01  4.92149081e-02  2.53089027e-01  1.12694491e+00
  1.13820989e+00  1.16382902e+00  3.44103718e+00  3.46053008e+00
  4.93196973e+00  9.13507244e+00  9.16380106e+00  2.38886762e+01
  1.13548353e+02]
multiplicity <S^2> = 0.75418944  2S+1 = 2.0041851
E1 = -139.21626578787655  Ecoul = 39.809291087922354
cycle= 8 E= -99.4069746999542  delta_E= -1.94e-09  |g|= 2.84e-06  |ddm|= 5.92e-05
    CPU time for cycle= 8      0.07 sec, wall time      0.02 sec
diis-norm(errvec)=4.02204e-06
diis-c [-2.94065777e-12  1.41913808e-06  1.17389057e-05 -2.46652874e-04
  1.67677176e-03 -6.70245268e-03  4.69649680e-02 -1.86914089e-01
  1.14520830e+00]
alpha HOMO (B2u) = -0.732040330452801  LUMO (Ag) = 0.0458579440047736
alpha irrep_nelec = [2, 0, 0, 0, 0, 1, 1, 1]
beta  irrep_nelec = [2, 0, 0, 0, 0, 0, 1, 1]
alpha-Ag nocc = 2  HOMO = -1.67450676555035  LUMO = 0.0458579440047736
   mo_energy = [-2.64108218e+01 -1.67450677e+00  4.58579440e-02  2.94604525e-01
  3.15931175e-01  3.21405601e-01  1.05002961e+00  1.07927324e+00
  1.46012450e+00  2.89947312e+00  2.97102802e+00  6.30885297e+00
  9.22763096e+00  9.32925049e+00  2.77008050e+01  3.99375519e+01
  4.00178402e+01  1.34329918e+02]
alpha-B1g nocc = 0
   mo_energy = [ 0.3214056   1.07927324  2.97102802  9.32925049 40.0178402 ]
alpha-B2g nocc = 0
   mo_energy = [ 0.31644609  1.05734825  2.91660738  9.25210966 39.95740116]
alpha-B3g nocc = 0
   mo_energy = [ 0.31644609  1.05734825  2.91660738  9.25210966 39.95740116]
alpha-Au nocc = 0
   mo_energy = [1.12963997 3.43180239 9.10315499]
alpha-B1u nocc = 1  HOMO = -0.845528694423787  LUMO = 0.0475633352057916
   mo_energy = [-8.45528694e-01  4.75633352e-02  2.39872806e-01  1.09825821e+00
  1.12527978e+00  1.12963997e+00  3.40864543e+00  3.43180239e+00
  4.81863498e+00  9.06105689e+00  9.10315499e+00  2.37899594e+01
  1.13499531e+02]
alpha-B2u nocc = 1  HOMO = -0.732040330452801  LUMO = 0.0490844206560105
   mo_energy = [-7.32040330e-01  4.90844207e-02  2.50681883e-01  1.12211160e+00
  1.13918467e+00  1.15048621e+00  3.41444186e+00  3.46085165e+00
  4.90589487e+00  9.07153930e+00  9.15646450e+00  2.38692340e+01
  1.13541431e+02]
alpha-B3u nocc = 1  HOMO = -0.732040330452801  LUMO = 0.0490844206560131
   mo_energy = [-7.32040330e-01  4.90844207e-02  2.50681883e-01  1.12211160e+00
  1.13918467e+00  1.15048621e+00  3.41444186e+00  3.46085165e+00
  4.90589487e+00  9.07153930e+00  9.15646450e+00  2.38692340e+01
  1.13541431e+02]
beta-Ag nocc = 2  HOMO = -1.47911533237965  LUMO = 0.0467422247342989
   mo_energy = [-2.63631386e+01 -1.47911533e+00  4.67422247e-02  3.03065554e-01
  3.17734691e-01  3.20885007e-01  1.07798562e+00  1.08328651e+00
  1.49389671e+00  2.98029710e+00  3.00974115e+00  6.36303089e+00
  9.35034295e+00  9.36391822e+00  2.77371155e+01  4.00066370e+01
  4.00306547e+01  1.34341278e+02]
beta-B1g nocc = 0
   mo_energy = [ 0.32088501  1.07798562  2.9802971   9.35034295 40.03065474]
beta-B2g nocc = 0
   mo_energy = [ 0.31800286  1.08172849  3.00169826  9.36029312 40.0125981 ]
beta-B3g nocc = 0
   mo_energy = [ 0.31800286  1.08172849  3.00169826  9.36029312 40.0125981 ]
beta-Au nocc = 0
   mo_energy = [1.13154111 3.4484036  9.14588305]
beta-B1u nocc = 0
   mo_energy = [2.59416598e-02 6.55393013e-02 2.96006840e-01 1.12588763e+00
 1.13154111e+00 1.24568153e+00 3.43856543e+00 3.44840360e+00
 4.98750922e+00 9.13145791e+00 9.14588305e+00 2.38854449e+01
 1.13526429e+02]
beta-B2u nocc = 1  HOMO = -0.68024441064763  LUMO = 0.0492149033657469
   mo_energy = [-6.80244411e-01  4.92149034e-02  2.53088971e-01  1.12694504e+00
  1.13820993e+00  1.16382863e+00  3.44103718e+00  3.46052978e+00
  4.93196876e+00  9.13507178e+00  9.16380021e+00  2.38886749e+01
  1.13548352e+02]
beta-B3u nocc = 1  HOMO = -0.680244410647624  LUMO = 0.0492149033657507
   mo_energy = [-6.80244411e-01  4.92149034e-02  2.53088971e-01  1.12694504e+00
  1.13820993e+00  1.16382863e+00  3.44103718e+00  3.46052978e+00
  4.93196876e+00  9.13507178e+00  9.16380021e+00  2.38886749e+01
  1.13548352e+02]
multiplicity <S^2> = 0.75418936  2S+1 = 2.004185
E1 = -139.21626939116254  Ecoul = 39.80929469120299
cycle= 9 E= -99.4069746999595  delta_E= -5.36e-12  |g|= 2.68e-07  |ddm|= 1.85e-06
    CPU time for cycle= 9      0.07 sec, wall time      0.02 sec
diis-norm(errvec)=3.79448e-07
diis-c [-2.48993372e-14  1.18371413e+00 -3.84749319e-06  3.03151671e-05
 -1.61010346e-04  7.21507946e-04 -5.50367123e-03  2.38382658e-02
 -2.02635687e-01]
alpha HOMO (B2u) = -0.73204016409779  LUMO (Ag) = 0.0458579402817295
alpha irrep_nelec = [2, 0, 0, 0, 0, 1, 1, 1]
beta  irrep_nelec = [2, 0, 0, 0, 0, 0, 1, 1]
alpha-Ag nocc = 2  HOMO = -1.67450664973173  LUMO = 0.0458579402817295
   mo_energy = [-2.64108217e+01 -1.67450665e+00  4.58579403e-02  2.94604517e-01
  3.15931171e-01  3.21405592e-01  1.05002962e+00  1.07927324e+00
  1.46012453e+00  2.89947320e+00  2.97102810e+00  6.30885305e+00
  9.22763107e+00  9.32925061e+00  2.77008051e+01  3.99375521e+01
  4.00178403e+01  1.34329919e+02]
alpha-B1g nocc = 0
   mo_energy = [ 0.32140559  1.07927324  2.9710281   9.32925061 40.01784033]
alpha-B2g nocc = 0
   mo_energy = [ 0.31644608  1.05734825  2.91660745  9.25210977 39.95740127]
alpha-B3g nocc = 0
   mo_energy = [ 0.31644608  1.05734825  2.91660745  9.25210977 39.95740127]
alpha-Au nocc = 0
   mo_energy = [1.12963997 3.43180242 9.10315508]
alpha-B1u nocc = 1  HOMO = -0.845528532757347  LUMO = 0.0475633359398328
   mo_energy = [-8.45528533e-01  4.75633359e-02  2.39872813e-01  1.09825826e+00
  1.12527979e+00  1.12963997e+00  3.40864546e+00  3.43180242e+00
  4.81863508e+00  9.06105697e+00  9.10315508e+00  2.37899595e+01
  1.13499531e+02]
alpha-B2u nocc = 1  HOMO = -0.73204016409779  LUMO = 0.0490844207253064
   mo_energy = [-7.32040164e-01  4.90844207e-02  2.50681887e-01  1.12211161e+00
  1.13918467e+00  1.15048625e+00  3.41444190e+00  3.46085168e+00
  4.90589497e+00  9.07153938e+00  9.15646460e+00  2.38692341e+01
  1.13541431e+02]
alpha-B3u nocc = 1  HOMO = -0.732040164097793  LUMO = 0.0490844207253038
   mo_energy = [-7.32040164e-01  4.90844207e-02  2.50681887e-01  1.12211161e+00
  1.13918467e+00  1.15048625e+00  3.41444190e+00  3.46085168e+00
  4.90589497e+00  9.07153938e+00  9.15646460e+00  2.38692341e+01
  1.13541431e+02]
beta-Ag nocc = 2  HOMO = -1.47911535047906  LUMO = 0.0467422325625113
   mo_energy = [-2.63631385e+01 -1.47911535e+00  4.67422326e-02  3.03065579e-01
  3.17734703e-01  3.20885022e-01  1.07798565e+00  1.08328654e+00
  1.49389674e+00  2.98029710e+00  3.00974118e+00  6.36303094e+00
  9.35034299e+00  9.36391827e+00  2.77371155e+01  4.00066371e+01
  4.00306548e+01  1.34341278e+02]
beta-B1g nocc = 0
   mo_energy = [ 0.32088502  1.07798565  2.9802971   9.35034299 40.03065483]
beta-B2g nocc = 0
   mo_energy = [ 0.31800288  1.08172854  3.00169828  9.36029317 40.01259818]
beta-B3g nocc = 0
   mo_energy = [ 0.31800288  1.08172854  3.00169828  9.36029317 40.01259818]
beta-Au nocc = 0
   mo_energy = [1.13154113 3.44840363 9.14588309]
beta-B1u nocc = 0
   mo_energy = [2.59416872e-02 6.55393180e-02 2.96006851e-01 1.12588765e+00
 1.13154113e+00 1.24568157e+00 3.43856547e+00 3.44840363e+00
 4.98750927e+00 9.13145796e+00 9.14588309e+00 2.38854450e+01
 1.13526429e+02]
beta-B2u nocc = 1  HOMO = -0.680244499942131  LUMO = 0.0492149031388451
   mo_energy = [-6.80244500e-01  4.92149031e-02  2.53088971e-01  1.12694506e+00
  1.13820994e+00  1.16382863e+00  3.44103721e+00  3.46052980e+00
  4.93196878e+00  9.13507183e+00  9.16380025e+00  2.38886750e+01
  1.13548352e+02]
beta-B3u nocc = 1  HOMO = -0.680244499942129  LUMO = 0.0492149031388468
   mo_energy = [-6.80244500e-01  4.92149031e-02  2.53088971e-01  1.12694506e+00
  1.13820994e+00  1.16382863e+00  3.44103721e+00  3.46052980e+00
  4.93196878e+00  9.13507183e+00  9.16380025e+00  2.38886750e+01
  1.13548352e+02]
multiplicity <S^2> = 0.75418933  2S+1 = 2.004185
E1 = -139.2162692838248  Ecoul = 39.80929458386497
cycle= 10 E= -99.4069746999598  delta_E= -2.84e-13  |g|= 2.44e-08  |ddm|= 2.07e-07
    CPU time for cycle= 10      0.07 sec, wall time      0.02 sec
diis-norm(errvec)=3.45411e-08
diis-c [-4.44915460e-16 -1.19651762e-01  1.11182698e+00 -1.77424394e-06
  1.08619219e-05 -3.58725318e-05  1.72840205e-04 -6.49254508e-04
  8.32798251e-03]
alpha HOMO (B3u) = -0.732040157040087  LUMO (Ag) = 0.0458579396011261
alpha irrep_nelec = [2, 0, 0, 0, 0, 1, 1, 1]
beta  irrep_nelec = [2, 0, 0, 0, 0, 0, 1, 1]
alpha-Ag nocc = 2  HOMO = -1.67450664876924  LUMO = 0.0458579396011261
   mo_energy = [-2.64108217e+01 -1.67450665e+00  4.58579396e-02  2.94604516e-01
  3.15931170e-01  3.21405590e-01  1.05002962e+00  1.07927324e+00
  1.46012453e+00  2.89947320e+00  2.97102810e+00  6.30885305e+00
  9.22763107e+00  9.32925062e+00  2.77008051e+01  3.99375520e+01
  4.00178403e+01  1.34329919e+02]
alpha-B1g nocc = 0
   mo_energy = [ 0.32140559  1.07927324  2.9710281   9.32925062 40.01784033]
alpha-B2g nocc = 0
   mo_energy = [ 0.31644608  1.05734825  2.91660745  9.25210977 39.95740127]
alpha-B3g nocc = 0
   mo_energy = [ 0.31644608  1.05734825  2.91660745  9.25210977 39.95740127]
alpha-Au nocc = 0
   mo_energy = [1.12963997 3.43180242 9.10315508]
alpha-B1u nocc = 1  HOMO = -0.845528525451632  LUMO = 0.0475633359928942
   mo_energy = [-8.45528525e-01  4.75633360e-02  2.39872813e-01  1.09825826e+00
  1.12527979e+00  1.12963997e+00  3.40864546e+00  3.43180242e+00
  4.81863508e+00  9.06105697e+00  9.10315508e+00  2.37899595e+01
  1.13499531e+02]
alpha-B2u nocc = 1  HOMO = -0.732040157040093  LUMO = 0.0490844206944339
   mo_energy = [-7.32040157e-01  4.90844207e-02  2.50681887e-01  1.12211161e+00
  1.13918467e+00  1.15048625e+00  3.41444190e+00  3.46085168e+00
  4.90589497e+00  9.07153938e+00  9.15646460e+00  2.38692341e+01
  1.13541431e+02]
alpha-B3u nocc = 1  HOMO = -0.732040157040087  LUMO = 0.0490844206944349
   mo_energy = [-7.32040157e-01  4.90844207e-02  2.50681887e-01  1.12211161e+00
  1.13918467e+00  1.15048625e+00  3.41444190e+00  3.46085168e+00
  4.90589497e+00  9.07153938e+00  9.15646460e+00  2.38692341e+01
  1.13541431e+02]
beta-Ag nocc = 2  HOMO = -1.47911535790632  LUMO = 0.0467422330673303
   mo_energy = [-2.63631385e+01 -1.47911536e+00  4.67422331e-02  3.03065580e-01
  3.17734704e-01  3.20885023e-01  1.07798565e+00  1.08328654e+00
  1.49389674e+00  2.98029710e+00  3.00974118e+00  6.36303094e+00
  9.35034298e+00  9.36391826e+00  2.77371155e+01  4.00066371e+01
  4.00306548e+01  1.34341278e+02]
beta-B1g nocc = 0
   mo_energy = [ 0.32088502  1.07798565  2.9802971   9.35034298 40.03065482]
beta-B2g nocc = 0
   mo_energy = [ 0.31800288  1.08172854  3.00169827  9.36029316 40.01259817]
beta-B3g nocc = 0
   mo_energy = [ 0.31800288  1.08172854  3.00169827  9.36029316 40.01259817]
beta-Au nocc = 0
   mo_energy = [1.13154113 3.44840363 9.14588309]
beta-B1u nocc = 0
   mo_energy = [2.59416864e-02 6.55393170e-02 2.96006850e-01 1.12588765e+00
 1.13154113e+00 1.24568157e+00 3.43856547e+00 3.44840363e+00
 4.98750926e+00 9.13145795e+00 9.14588309e+00 2.38854450e+01
 1.13526429e+02]
beta-B2u nocc = 1  HOMO = -0.680244511886242  LUMO = 0.0492149030829486
   mo_energy = [-6.80244512e-01  4.92149031e-02  2.53088970e-01  1.12694506e+00
  1.13820994e+00  1.16382863e+00  3.44103721e+00  3.46052980e+00
  4.93196878e+00  9.13507182e+00  9.16380025e+00  2.38886749e+01
  1.13548352e+02]
beta-B3u nocc = 1  HOMO = -0.680244511886237  LUMO = 0.0492149030829477
   mo_energy = [-6.80244512e-01  4.92149031e-02  2.53088970e-01  1.12694506e+00
  1.13820994e+00  1.16382863e+00  3.44103721e+00  3.46052980e+00
  4.93196878e+00  9.13507182e+00  9.16380025e+00  2.38886749e+01
  1.13548352e+02]
multiplicity <S^2> = 0.75418933  2S+1 = 2.004185
E1 = -139.21626929918  Ecoul = 39.80929459922018
cycle= 11 E= -99.4069746999598  delta_E= 1.42e-14  |g|= 2.99e-09  |ddm|= 1.67e-08
    CPU time for cycle= 11      0.07 sec, wall time      0.02 sec
diis-norm(errvec)=4.23186e-09
Linear dependence found in DIIS error vectors.
diis-c [-1.92287851e-16 -4.35464832e-02  4.98034821e-01  5.44629456e-01
 -7.53076971e-07  6.03253901e-06 -5.28236086e-05  2.08921861e-04
  7.20829070e-04]
alpha HOMO (B2u) = -0.732040156616888  LUMO (Ag) = 0.0458579395633971
alpha irrep_nelec = [2, 0, 0, 0, 0, 1, 1, 1]
beta  irrep_nelec = [2, 0, 0, 0, 0, 0, 1, 1]
alpha-Ag nocc = 2  HOMO = -1.67450664863391  LUMO = 0.0458579395633971
   mo_energy = [-2.64108217e+01 -1.67450665e+00  4.58579396e-02  2.94604515e-01
  3.15931170e-01  3.21405590e-01  1.05002962e+00  1.07927324e+00
  1.46012453e+00  2.89947320e+00  2.97102810e+00  6.30885305e+00
  9.22763107e+00  9.32925062e+00  2.77008051e+01  3.99375520e+01
  4.00178403e+01  1.34329919e+02]
alpha-B1g nocc = 0
   mo_energy = [ 0.32140559  1.07927324  2.9710281   9.32925062 40.01784033]
alpha-B2g nocc = 0
   mo_energy = [ 0.31644608  1.05734825  2.91660745  9.25210977 39.95740127]
alpha-B3g nocc = 0
   mo_energy = [ 0.31644608  1.05734825  2.91660745  9.25210977 39.95740127]
alpha-Au nocc = 0
   mo_energy = [1.12963997 3.43180242 9.10315508]
alpha-B1u nocc = 1  HOMO = -0.845528524990301  LUMO = 0.0475633359959313
   mo_energy = [-8.45528525e-01  4.75633360e-02  2.39872813e-01  1.09825826e+00
  1.12527979e+00  1.12963997e+00  3.40864546e+00  3.43180242e+00
  4.81863508e+00  9.06105697e+00  9.10315508e+00  2.37899595e+01
  1.13499531e+02]
alpha-B2u nocc = 1  HOMO = -0.732040156616888  LUMO = 0.0490844206916653
   mo_energy = [-7.32040157e-01  4.90844207e-02  2.50681887e-01  1.12211161e+00
  1.13918467e+00  1.15048625e+00  3.41444190e+00  3.46085168e+00
  4.90589497e+00  9.07153938e+00  9.15646460e+00  2.38692341e+01
  1.13541431e+02]
alpha-B3u nocc = 1  HOMO = -0.732040156616891  LUMO = 0.0490844206916666
   mo_energy = [-7.32040157e-01  4.90844207e-02  2.50681887e-01  1.12211161e+00
  1.13918467e+00  1.15048625e+00  3.41444190e+00  3.46085168e+00
  4.90589497e+00  9.07153938e+00  9.15646460e+00  2.38692341e+01
  1.13541431e+02]
beta-Ag nocc = 2  HOMO = -1.47911535832965  LUMO = 0.0467422330870312
   mo_energy = [-2.63631385e+01 -1.47911536e+00  4.67422331e-02  3.03065580e-01
  3.17734704e-01  3.20885023e-01  1.07798565e+00  1.08328654e+00
  1.49389674e+00  2.98029710e+00  3.00974118e+00  6.36303094e+00
  9.35034298e+00  9.36391826e+00  2.77371155e+01  4.00066371e+01
  4.00306548e+01  1.34341278e+02]
beta-B1g nocc = 0
   mo_energy = [ 0.32088502  1.07798565  2.9802971   9.35034298 40.03065482]
beta-B2g nocc = 0
   mo_energy = [ 0.31800288  1.08172854  3.00169827  9.36029316 40.01259817]
beta-B3g nocc = 0
   mo_energy = [ 0.31800288  1.08172854  3.00169827  9.36029316 40.01259817]
beta-Au nocc = 0
   mo_energy = [1.13154113 3.44840363 9.14588309]
beta-B1u nocc = 0
   mo_energy = [2.59416863e-02 6.55393169e-02 2.96006849e-01 1.12588765e+00
 1.13154113e+00 1.24568157e+00 3.43856547e+00 3.44840363e+00
 4.98750926e+00 9.13145795e+00 9.14588309e+00 2.38854450e+01
 1.13526429e+02]
beta-B2u nocc = 1  HOMO = -0.680244512502689  LUMO = 0.0492149030801855
   mo_energy = [-6.80244513e-01  4.92149031e-02  2.53088970e-01  1.12694506e+00
  1.13820994e+00  1.16382863e+00  3.44103721e+00  3.46052980e+00
  4.93196878e+00  9.13507182e+00  9.16380025e+00  2.38886749e+01
  1.13548352e+02]
beta-B3u nocc = 1  HOMO = -0.680244512502679  LUMO = 0.0492149030801857
   mo_energy = [-6.80244513e-01  4.92149031e-02  2.53088970e-01  1.12694506e+00
  1.13820994e+00  1.16382863e+00  3.44103721e+00  3.46052980e+00
  4.93196878e+00  9.13507182e+00  9.16380025e+00  2.38886749e+01
  1.13548352e+02]
multiplicity <S^2> = 0.75418933  2S+1 = 2.004185
E1 = -139.21626929892506  Ecoul = 39.80929459896537
cycle= 12 E= -99.4069746999597  delta_E= 1.42e-13  |g|= 1.76e-09  |ddm|= 8.71e-10
    CPU time for cycle= 12      0.07 sec, wall time      0.02 sec
diis-norm(errvec)=2.49238e-09
Linear dependence found in DIIS error vectors.
diis-c [-8.88129453e-17 -2.83117989e-02  3.23779995e-01  3.51586432e-01
  3.52415803e-01  1.87752230e-06 -2.66359552e-05  1.19724929e-04
  4.34602096e-04]
alpha HOMO (B3u) = -0.73204015653966  LUMO (Ag) = 0.0458579395461555
alpha irrep_nelec = [2, 0, 0, 0, 0, 1, 1, 1]
beta  irrep_nelec = [2, 0, 0, 0, 0, 0, 1, 1]
alpha-Ag nocc = 2  HOMO = -1.67450664865483  LUMO = 0.0458579395461555
   mo_energy = [-2.64108217e+01 -1.67450665e+00  4.58579395e-02  2.94604515e-01
  3.15931170e-01  3.21405590e-01  1.05002962e+00  1.07927324e+00
  1.46012453e+00  2.89947320e+00  2.97102810e+00  6.30885305e+00
  9.22763107e+00  9.32925062e+00  2.77008051e+01  3.99375520e+01
  4.00178403e+01  1.34329919e+02]
alpha-B1g nocc = 0
   mo_energy = [ 0.32140559  1.07927324  2.9710281   9.32925062 40.01784033]
alpha-B2g nocc = 0
   mo_energy = [ 0.31644608  1.05734825  2.91660745  9.25210977 39.95740127]
alpha-B3g nocc = 0
   mo_energy = [ 0.31644608  1.05734825  2.91660745  9.25210977 39.95740127]
alpha-Au nocc = 0
   mo_energy = [1.12963997 3.43180242 9.10315508]
alpha-B1u nocc = 1  HOMO = -0.845528524787705  LUMO = 0.0475633359980357
   mo_energy = [-8.45528525e-01  4.75633360e-02  2.39872813e-01  1.09825826e+00
  1.12527979e+00  1.12963997e+00  3.40864546e+00  3.43180242e+00
  4.81863508e+00  9.06105697e+00  9.10315508e+00  2.37899595e+01
  1.13499531e+02]
alpha-B2u nocc = 1  HOMO = -0.732040156539669  LUMO = 0.0490844206901333
   mo_energy = [-7.32040157e-01  4.90844207e-02  2.50681887e-01  1.12211161e+00
  1.13918467e+00  1.15048625e+00  3.41444190e+00  3.46085168e+00
  4.90589497e+00  9.07153938e+00  9.15646460e+00  2.38692341e+01
  1.13541431e+02]
alpha-B3u nocc = 1  HOMO = -0.73204015653966  LUMO = 0.0490844206901329
[...]
  3.15931170e-01  3.21405590e-01  1.05002962e+00  1.07927324e+00
  1.46012453e+00  2.89947320e+00  2.97102810e+00  6.30885305e+00
  9.22763107e+00  9.32925062e+00  2.77008051e+01  3.99375520e+01
  4.00178403e+01  1.34329919e+02]
alpha-B1g nocc = 0
   mo_energy = [ 0.32140559  1.07927324  2.9710281   9.32925062 40.01784033]
alpha-B2g nocc = 0
   mo_energy = [ 0.31644608  1.05734825  2.91660745  9.25210977 39.95740127]
alpha-B3g nocc = 0
   mo_energy = [ 0.31644608  1.05734825  2.91660745  9.25210977 39.95740127]
alpha-Au nocc = 0
   mo_energy = [1.12963997 3.43180242 9.10315508]
alpha-B1u nocc = 1  HOMO = -0.845528524356306  LUMO = 0.0475633360030419
   mo_energy = [-8.45528524e-01  4.75633360e-02  2.39872813e-01  1.09825826e+00
  1.12527979e+00  1.12963997e+00  3.40864546e+00  3.43180242e+00
  4.81863508e+00  9.06105697e+00  9.10315508e+00  2.37899595e+01
  1.13499531e+02]
alpha-B2u nocc = 1  HOMO = -0.732040156026969  LUMO = 0.0490844206872007
   mo_energy = [-7.32040156e-01  4.90844207e-02  2.50681887e-01  1.12211161e+00
  1.13918467e+00  1.15048625e+00  3.41444190e+00  3.46085168e+00
  4.90589497e+00  9.07153938e+00  9.15646460e+00  2.38692341e+01
  1.13541431e+02]
alpha-B3u nocc = 1  HOMO = -0.732040156026963  LUMO = 0.0490844206871998
   mo_energy = [-7.32040156e-01  4.90844207e-02  2.50681887e-01  1.12211161e+00
  1.13918467e+00  1.15048625e+00  3.41444190e+00  3.46085168e+00
  4.90589497e+00  9.07153938e+00  9.15646460e+00  2.38692341e+01
  1.13541431e+02]
beta-Ag nocc = 2  HOMO = -1.47911535868046  LUMO = 0.046742233116847
   mo_energy = [-2.63631385e+01 -1.47911536e+00  4.67422331e-02  3.03065580e-01
  3.17734704e-01  3.20885023e-01  1.07798565e+00  1.08328654e+00
  1.49389674e+00  2.98029710e+00  3.00974118e+00  6.36303094e+00
  9.35034298e+00  9.36391826e+00  2.77371155e+01  4.00066371e+01
  4.00306548e+01  1.34341278e+02]
beta-B1g nocc = 0
   mo_energy = [ 0.32088502  1.07798565  2.9802971   9.35034298 40.03065482]
beta-B2g nocc = 0
   mo_energy = [ 0.31800288  1.08172854  3.00169827  9.36029316 40.01259817]
beta-B3g nocc = 0
   mo_energy = [ 0.31800288  1.08172854  3.00169827  9.36029316 40.01259817]
beta-Au nocc = 0
   mo_energy = [1.13154113 3.44840363 9.14588309]
beta-B1u nocc = 0
   mo_energy = [2.59416863e-02 6.55393168e-02 2.96006849e-01 1.12588765e+00
 1.13154113e+00 1.24568157e+00 3.43856547e+00 3.44840363e+00
 4.98750926e+00 9.13145795e+00 9.14588309e+00 2.38854450e+01
 1.13526429e+02]
beta-B2u nocc = 1  HOMO = -0.680244513232745  LUMO = 0.0492149030753457
   mo_energy = [-6.80244513e-01  4.92149031e-02  2.53088970e-01  1.12694506e+00
  1.13820994e+00  1.16382863e+00  3.44103721e+00  3.46052980e+00
  4.93196878e+00  9.13507182e+00  9.16380025e+00  2.38886749e+01
  1.13548352e+02]
beta-B3u nocc = 1  HOMO = -0.680244513232744  LUMO = 0.0492149030753431
   mo_energy = [-6.80244513e-01  4.92149031e-02  2.53088970e-01  1.12694506e+00
  1.13820994e+00  1.16382863e+00  3.44103721e+00  3.46052980e+00
  4.93196878e+00  9.13507182e+00  9.16380025e+00  2.38886749e+01
  1.13548352e+02]
multiplicity <S^2> = 0.75418933  2S+1 = 2.004185
E1 = -139.21626929847827  Ecoul = 39.809294598518406
cycle= 168 E= -99.4069746999599  delta_E= -8.53e-14  |g|= 1.24e-13  |ddm|= 8.13e-14
    CPU time for cycle= 168      0.07 sec, wall time      0.02 sec
diis-norm(errvec)=1.57385e-13
Linear dependence found in DIIS error vectors.
diis-c [-2.89052492e-16  1.25000000e-01  1.25000000e-01  1.25000000e-01
  1.25000000e-01  1.25000000e-01  1.25000000e-01  1.25000000e-01
  1.25000000e-01]
alpha HOMO (B2u) = -0.732040156026962  LUMO (Ag) = 0.0458579395136796
alpha irrep_nelec = [2, 0, 0, 0, 0, 1, 1, 1]
beta  irrep_nelec = [2, 0, 0, 0, 0, 0, 1, 1]
alpha-Ag nocc = 2  HOMO = -1.6745066484151  LUMO = 0.0458579395136796
   mo_energy = [-2.64108217e+01 -1.67450665e+00  4.58579395e-02  2.94604515e-01
  3.15931170e-01  3.21405590e-01  1.05002962e+00  1.07927324e+00
  1.46012453e+00  2.89947320e+00  2.97102810e+00  6.30885305e+00
  9.22763107e+00  9.32925062e+00  2.77008051e+01  3.99375520e+01
  4.00178403e+01  1.34329919e+02]
alpha-B1g nocc = 0
   mo_energy = [ 0.32140559  1.07927324  2.9710281   9.32925062 40.01784033]
alpha-B2g nocc = 0
   mo_energy = [ 0.31644608  1.05734825  2.91660745  9.25210977 39.95740127]
alpha-B3g nocc = 0
   mo_energy = [ 0.31644608  1.05734825  2.91660745  9.25210977 39.95740127]
alpha-Au nocc = 0
   mo_energy = [1.12963997 3.43180242 9.10315508]
alpha-B1u nocc = 1  HOMO = -0.845528524356305  LUMO = 0.0475633360030412
   mo_energy = [-8.45528524e-01  4.75633360e-02  2.39872813e-01  1.09825826e+00
  1.12527979e+00  1.12963997e+00  3.40864546e+00  3.43180242e+00
  4.81863508e+00  9.06105697e+00  9.10315508e+00  2.37899595e+01
  1.13499531e+02]
alpha-B2u nocc = 1  HOMO = -0.732040156026962  LUMO = 0.0490844206872022
   mo_energy = [-7.32040156e-01  4.90844207e-02  2.50681887e-01  1.12211161e+00
  1.13918467e+00  1.15048625e+00  3.41444190e+00  3.46085168e+00
  4.90589497e+00  9.07153938e+00  9.15646460e+00  2.38692341e+01
  1.13541431e+02]
alpha-B3u nocc = 1  HOMO = -0.732040156026963  LUMO = 0.0490844206872004
   mo_energy = [-7.32040156e-01  4.90844207e-02  2.50681887e-01  1.12211161e+00
  1.13918467e+00  1.15048625e+00  3.41444190e+00  3.46085168e+00
  4.90589497e+00  9.07153938e+00  9.15646460e+00  2.38692341e+01
  1.13541431e+02]
beta-Ag nocc = 2  HOMO = -1.47911535868046  LUMO = 0.0467422331168519
   mo_energy = [-2.63631385e+01 -1.47911536e+00  4.67422331e-02  3.03065580e-01
  3.17734704e-01  3.20885023e-01  1.07798565e+00  1.08328654e+00
  1.49389674e+00  2.98029710e+00  3.00974118e+00  6.36303094e+00
  9.35034298e+00  9.36391826e+00  2.77371155e+01  4.00066371e+01
  4.00306548e+01  1.34341278e+02]
beta-B1g nocc = 0
   mo_energy = [ 0.32088502  1.07798565  2.9802971   9.35034298 40.03065482]
beta-B2g nocc = 0
   mo_energy = [ 0.31800288  1.08172854  3.00169827  9.36029316 40.01259817]
beta-B3g nocc = 0
   mo_energy = [ 0.31800288  1.08172854  3.00169827  9.36029316 40.01259817]
beta-Au nocc = 0
   mo_energy = [1.13154113 3.44840363 9.14588309]
beta-B1u nocc = 0
   mo_energy = [2.59416863e-02 6.55393168e-02 2.96006849e-01 1.12588765e+00
 1.13154113e+00 1.24568157e+00 3.43856547e+00 3.44840363e+00
 4.98750926e+00 9.13145795e+00 9.14588309e+00 2.38854450e+01
 1.13526429e+02]
beta-B2u nocc = 1  HOMO = -0.680244513232745  LUMO = 0.0492149030753446
   mo_energy = [-6.80244513e-01  4.92149031e-02  2.53088970e-01  1.12694506e+00
  1.13820994e+00  1.16382863e+00  3.44103721e+00  3.46052980e+00
  4.93196878e+00  9.13507182e+00  9.16380025e+00  2.38886749e+01
  1.13548352e+02]
beta-B3u nocc = 1  HOMO = -0.680244513232742  LUMO = 0.0492149030753423
   mo_energy = [-6.80244513e-01  4.92149031e-02  2.53088970e-01  1.12694506e+00
  1.13820994e+00  1.16382863e+00  3.44103721e+00  3.46052980e+00
  4.93196878e+00  9.13507182e+00  9.16380025e+00  2.38886749e+01
  1.13548352e+02]
multiplicity <S^2> = 0.75418933  2S+1 = 2.004185
E1 = -139.21626929847815  Ecoul = 39.80929459851835
cycle= 169 E= -99.4069746999598  delta_E= 5.68e-14  |g|= 1.5e-13  |ddm|= 3.97e-14
    CPU time for cycle= 169      0.07 sec, wall time      0.02 sec
diis-norm(errvec)=1.88388e-13
Linear dependence found in DIIS error vectors.
diis-c [-2.89052492e-16  1.25000000e-01  1.25000000e-01  1.25000000e-01
  1.25000000e-01  1.25000000e-01  1.25000000e-01  1.25000000e-01
  1.25000000e-01]
alpha HOMO (B3u) = -0.732040156026963  LUMO (Ag) = 0.0458579395136838
alpha irrep_nelec = [2, 0, 0, 0, 0, 1, 1, 1]
beta  irrep_nelec = [2, 0, 0, 0, 0, 0, 1, 1]
alpha-Ag nocc = 2  HOMO = -1.67450664841509  LUMO = 0.0458579395136838
   mo_energy = [-2.64108217e+01 -1.67450665e+00  4.58579395e-02  2.94604515e-01
  3.15931170e-01  3.21405590e-01  1.05002962e+00  1.07927324e+00
  1.46012453e+00  2.89947320e+00  2.97102810e+00  6.30885305e+00
  9.22763107e+00  9.32925062e+00  2.77008051e+01  3.99375520e+01
  4.00178403e+01  1.34329919e+02]
alpha-B1g nocc = 0
   mo_energy = [ 0.32140559  1.07927324  2.9710281   9.32925062 40.01784033]
alpha-B2g nocc = 0
   mo_energy = [ 0.31644608  1.05734825  2.91660745  9.25210977 39.95740127]
alpha-B3g nocc = 0
   mo_energy = [ 0.31644608  1.05734825  2.91660745  9.25210977 39.95740127]
alpha-Au nocc = 0
   mo_energy = [1.12963997 3.43180242 9.10315508]
alpha-B1u nocc = 1  HOMO = -0.845528524356308  LUMO = 0.0475633360030426
   mo_energy = [-8.45528524e-01  4.75633360e-02  2.39872813e-01  1.09825826e+00
  1.12527979e+00  1.12963997e+00  3.40864546e+00  3.43180242e+00
  4.81863508e+00  9.06105697e+00  9.10315508e+00  2.37899595e+01
  1.13499531e+02]
alpha-B2u nocc = 1  HOMO = -0.732040156026964  LUMO = 0.0490844206872018
   mo_energy = [-7.32040156e-01  4.90844207e-02  2.50681887e-01  1.12211161e+00
  1.13918467e+00  1.15048625e+00  3.41444190e+00  3.46085168e+00
  4.90589497e+00  9.07153938e+00  9.15646460e+00  2.38692341e+01
  1.13541431e+02]
alpha-B3u nocc = 1  HOMO = -0.732040156026963  LUMO = 0.0490844206872008
   mo_energy = [-7.32040156e-01  4.90844207e-02  2.50681887e-01  1.12211161e+00
  1.13918467e+00  1.15048625e+00  3.41444190e+00  3.46085168e+00
  4.90589497e+00  9.07153938e+00  9.15646460e+00  2.38692341e+01
  1.13541431e+02]
beta-Ag nocc = 2  HOMO = -1.47911535868046  LUMO = 0.0467422331168719
   mo_energy = [-2.63631385e+01 -1.47911536e+00  4.67422331e-02  3.03065580e-01
  3.17734704e-01  3.20885023e-01  1.07798565e+00  1.08328654e+00
  1.49389674e+00  2.98029710e+00  3.00974118e+00  6.36303094e+00
  9.35034298e+00  9.36391826e+00  2.77371155e+01  4.00066371e+01
  4.00306548e+01  1.34341278e+02]
beta-B1g nocc = 0
   mo_energy = [ 0.32088502  1.07798565  2.9802971   9.35034298 40.03065482]
beta-B2g nocc = 0
   mo_energy = [ 0.31800288  1.08172854  3.00169827  9.36029316 40.01259817]
beta-B3g nocc = 0
   mo_energy = [ 0.31800288  1.08172854  3.00169827  9.36029316 40.01259817]
beta-Au nocc = 0
   mo_energy = [1.13154113 3.44840363 9.14588309]
beta-B1u nocc = 0
   mo_energy = [2.59416863e-02 6.55393168e-02 2.96006849e-01 1.12588765e+00
 1.13154113e+00 1.24568157e+00 3.43856547e+00 3.44840363e+00
 4.98750926e+00 9.13145795e+00 9.14588309e+00 2.38854450e+01
 1.13526429e+02]
beta-B2u nocc = 1  HOMO = -0.680244513232748  LUMO = 0.0492149030753445
   mo_energy = [-6.80244513e-01  4.92149031e-02  2.53088970e-01  1.12694506e+00
  1.13820994e+00  1.16382863e+00  3.44103721e+00  3.46052980e+00
  4.93196878e+00  9.13507182e+00  9.16380025e+00  2.38886749e+01
  1.13548352e+02]
beta-B3u nocc = 1  HOMO = -0.680244513232742  LUMO = 0.0492149030753439
   mo_energy = [-6.80244513e-01  4.92149031e-02  2.53088970e-01  1.12694506e+00
  1.13820994e+00  1.16382863e+00  3.44103721e+00  3.46052980e+00
  4.93196878e+00  9.13507182e+00  9.16380025e+00  2.38886749e+01
  1.13548352e+02]
multiplicity <S^2> = 0.75418933  2S+1 = 2.004185
E1 = -139.2162692984782  Ecoul = 39.809294598518385
cycle= 170 E= -99.4069746999598  delta_E= -1.42e-14  |g|= 9.52e-14  |ddm|= 3.29e-14
    CPU time for cycle= 170      0.07 sec, wall time      0.02 sec
diis-norm(errvec)=2.09155e-13
Linear dependence found in DIIS error vectors.
diis-c [-2.89052492e-16  1.25000000e-01  1.25000000e-01  1.25000000e-01
  1.25000000e-01  1.25000000e-01  1.25000000e-01  1.25000000e-01
  1.25000000e-01]
alpha HOMO (B3u) = -0.73204015602696  LUMO (Ag) = 0.0458579395136923
alpha irrep_nelec = [2, 0, 0, 0, 0, 1, 1, 1]
beta  irrep_nelec = [2, 0, 0, 0, 0, 0, 1, 1]
alpha-Ag nocc = 2  HOMO = -1.67450664841509  LUMO = 0.0458579395136923
   mo_energy = [-2.64108217e+01 -1.67450665e+00  4.58579395e-02  2.94604515e-01
  3.15931170e-01  3.21405590e-01  1.05002962e+00  1.07927324e+00
  1.46012453e+00  2.89947320e+00  2.97102810e+00  6.30885305e+00
  9.22763107e+00  9.32925062e+00  2.77008051e+01  3.99375520e+01
  4.00178403e+01  1.34329919e+02]
alpha-B1g nocc = 0
   mo_energy = [ 0.32140559  1.07927324  2.9710281   9.32925062 40.01784033]
alpha-B2g nocc = 0
   mo_energy = [ 0.31644608  1.05734825  2.91660745  9.25210977 39.95740127]
alpha-B3g nocc = 0
   mo_energy = [ 0.31644608  1.05734825  2.91660745  9.25210977 39.95740127]
alpha-Au nocc = 0
   mo_energy = [1.12963997 3.43180242 9.10315508]
alpha-B1u nocc = 1  HOMO = -0.845528524356311  LUMO = 0.0475633360030414
   mo_energy = [-8.45528524e-01  4.75633360e-02  2.39872813e-01  1.09825826e+00
  1.12527979e+00  1.12963997e+00  3.40864546e+00  3.43180242e+00
  4.81863508e+00  9.06105697e+00  9.10315508e+00  2.37899595e+01
  1.13499531e+02]
alpha-B2u nocc = 1  HOMO = -0.732040156026966  LUMO = 0.0490844206872012
   mo_energy = [-7.32040156e-01  4.90844207e-02  2.50681887e-01  1.12211161e+00
  1.13918467e+00  1.15048625e+00  3.41444190e+00  3.46085168e+00
  4.90589497e+00  9.07153938e+00  9.15646460e+00  2.38692341e+01
  1.13541431e+02]
alpha-B3u nocc = 1  HOMO = -0.73204015602696  LUMO = 0.0490844206872005
   mo_energy = [-7.32040156e-01  4.90844207e-02  2.50681887e-01  1.12211161e+00
  1.13918467e+00  1.15048625e+00  3.41444190e+00  3.46085168e+00
  4.90589497e+00  9.07153938e+00  9.15646460e+00  2.38692341e+01
  1.13541431e+02]
beta-Ag nocc = 2  HOMO = -1.47911535868046  LUMO = 0.0467422331168652
   mo_energy = [-2.63631385e+01 -1.47911536e+00  4.67422331e-02  3.03065580e-01
  3.17734704e-01  3.20885023e-01  1.07798565e+00  1.08328654e+00
  1.49389674e+00  2.98029710e+00  3.00974118e+00  6.36303094e+00
  9.35034298e+00  9.36391826e+00  2.77371155e+01  4.00066371e+01
  4.00306548e+01  1.34341278e+02]
beta-B1g nocc = 0
   mo_energy = [ 0.32088502  1.07798565  2.9802971   9.35034298 40.03065482]
beta-B2g nocc = 0
   mo_energy = [ 0.31800288  1.08172854  3.00169827  9.36029316 40.01259817]
beta-B3g nocc = 0
   mo_energy = [ 0.31800288  1.08172854  3.00169827  9.36029316 40.01259817]
beta-Au nocc = 0
   mo_energy = [1.13154113 3.44840363 9.14588309]
beta-B1u nocc = 0
   mo_energy = [2.59416863e-02 6.55393168e-02 2.96006849e-01 1.12588765e+00
 1.13154113e+00 1.24568157e+00 3.43856547e+00 3.44840363e+00
 4.98750926e+00 9.13145795e+00 9.14588309e+00 2.38854450e+01
 1.13526429e+02]
beta-B2u nocc = 1  HOMO = -0.680244513232749  LUMO = 0.0492149030753416
   mo_energy = [-6.80244513e-01  4.92149031e-02  2.53088970e-01  1.12694506e+00
  1.13820994e+00  1.16382863e+00  3.44103721e+00  3.46052980e+00
  4.93196878e+00  9.13507182e+00  9.16380025e+00  2.38886749e+01
  1.13548352e+02]
beta-B3u nocc = 1  HOMO = -0.680244513232744  LUMO = 0.0492149030753456
   mo_energy = [-6.80244513e-01  4.92149031e-02  2.53088970e-01  1.12694506e+00
  1.13820994e+00  1.16382863e+00  3.44103721e+00  3.46052980e+00
  4.93196878e+00  9.13507182e+00  9.16380025e+00  2.38886749e+01
  1.13548352e+02]
multiplicity <S^2> = 0.75418933  2S+1 = 2.004185
E1 = -139.21626929847818  Ecoul = 39.80929459851837
cycle= 171 E= -99.4069746999598  delta_E=    0  |g|= 1.08e-13  |ddm|= 7.33e-15
    CPU time for cycle= 171      0.07 sec, wall time      0.02 sec
alpha HOMO (B3u) = -0.73204015602696  LUMO (Ag) = 0.0458579395136795
alpha irrep_nelec = [2, 0, 0, 0, 0, 1, 1, 1]
beta  irrep_nelec = [2, 0, 0, 0, 0, 0, 1, 1]
alpha-Ag nocc = 2  HOMO = -1.67450664841509  LUMO = 0.0458579395136795
   mo_energy = [-2.64108217e+01 -1.67450665e+00  4.58579395e-02  2.94604515e-01
  3.15931170e-01  3.21405590e-01  1.05002962e+00  1.07927324e+00
  1.46012453e+00  2.89947320e+00  2.97102810e+00  6.30885305e+00
  9.22763107e+00  9.32925062e+00  2.77008051e+01  3.99375520e+01
  4.00178403e+01  1.34329919e+02]
alpha-B1g nocc = 0
   mo_energy = [ 0.32140559  1.07927324  2.9710281   9.32925062 40.01784033]
alpha-B2g nocc = 0
   mo_energy = [ 0.31644608  1.05734825  2.91660745  9.25210977 39.95740127]
alpha-B3g nocc = 0
   mo_energy = [ 0.31644608  1.05734825  2.91660745  9.25210977 39.95740127]
alpha-Au nocc = 0
   mo_energy = [1.12963997 3.43180242 9.10315508]
alpha-B1u nocc = 1  HOMO = -0.845528524356304  LUMO = 0.0475633360030416
   mo_energy = [-8.45528524e-01  4.75633360e-02  2.39872813e-01  1.09825826e+00
  1.12527979e+00  1.12963997e+00  3.40864546e+00  3.43180242e+00
  4.81863508e+00  9.06105697e+00  9.10315508e+00  2.37899595e+01
  1.13499531e+02]
alpha-B2u nocc = 1  HOMO = -0.732040156026966  LUMO = 0.0490844206872014
   mo_energy = [-7.32040156e-01  4.90844207e-02  2.50681887e-01  1.12211161e+00
  1.13918467e+00  1.15048625e+00  3.41444190e+00  3.46085168e+00
  4.90589497e+00  9.07153938e+00  9.15646460e+00  2.38692341e+01
  1.13541431e+02]
alpha-B3u nocc = 1  HOMO = -0.73204015602696  LUMO = 0.0490844206872024
   mo_energy = [-7.32040156e-01  4.90844207e-02  2.50681887e-01  1.12211161e+00
  1.13918467e+00  1.15048625e+00  3.41444190e+00  3.46085168e+00
  4.90589497e+00  9.07153938e+00  9.15646460e+00  2.38692341e+01
  1.13541431e+02]
beta-Ag nocc = 2  HOMO = -1.47911535868044  LUMO = 0.0467422331168609
   mo_energy = [-2.63631385e+01 -1.47911536e+00  4.67422331e-02  3.03065580e-01
  3.17734704e-01  3.20885023e-01  1.07798565e+00  1.08328654e+00
  1.49389674e+00  2.98029710e+00  3.00974118e+00  6.36303094e+00
  9.35034298e+00  9.36391826e+00  2.77371155e+01  4.00066371e+01
  4.00306548e+01  1.34341278e+02]
beta-B1g nocc = 0
   mo_energy = [ 0.32088502  1.07798565  2.9802971   9.35034298 40.03065482]
beta-B2g nocc = 0
   mo_energy = [ 0.31800288  1.08172854  3.00169827  9.36029316 40.01259817]
beta-B3g nocc = 0
   mo_energy = [ 0.31800288  1.08172854  3.00169827  9.36029316 40.01259817]
beta-Au nocc = 0
   mo_energy = [1.13154113 3.44840363 9.14588309]
beta-B1u nocc = 0
   mo_energy = [2.59416863e-02 6.55393168e-02 2.96006849e-01 1.12588765e+00
 1.13154113e+00 1.24568157e+00 3.43856547e+00 3.44840363e+00
 4.98750926e+00 9.13145795e+00 9.14588309e+00 2.38854450e+01
 1.13526429e+02]
beta-B2u nocc = 1  HOMO = -0.680244513232748  LUMO = 0.049214903075346
   mo_energy = [-6.80244513e-01  4.92149031e-02  2.53088970e-01  1.12694506e+00
  1.13820994e+00  1.16382863e+00  3.44103721e+00  3.46052980e+00
  4.93196878e+00  9.13507182e+00  9.16380025e+00  2.38886749e+01
  1.13548352e+02]
beta-B3u nocc = 1  HOMO = -0.680244513232754  LUMO = 0.0492149030753442
   mo_energy = [-6.80244513e-01  4.92149031e-02  2.53088970e-01  1.12694506e+00
  1.13820994e+00  1.16382863e+00  3.44103721e+00  3.46052980e+00
  4.93196878e+00  9.13507182e+00  9.16380025e+00  2.38886749e+01
  1.13548352e+02]
multiplicity <S^2> = 0.75418933  2S+1 = 2.004185
E1 = -139.21626929847835  Ecoul = 39.809294598518434
Extra cycle  E= -99.4069746999599  delta_E= -9.95e-14  |g|= 1.44e-13  |ddm|= 7.33e-15
    CPU time for scf_cycle     13.09 sec, wall time      3.44 sec
    CPU time for SCF     13.16 sec, wall time      3.48 sec
converged SCF energy = -99.4069746999599  <S^2> = 0.75418933  2S+1 = 2.004185
irreps of each MO ['Ag' 'Ag' 'B1u' 'B2u' 'B3u' 'Ag' 'B1u' 'B2u' 'B3u' 'B1u' 'B2u' 'B3u' 'Ag'
 'Ag' 'B2g' 'B3g' 'Ag' 'B1g' 'Ag' 'B2g' 'B3g' 'Ag' 'B1g' 'B1u' 'B2u' 'B3u'
 'B1u' 'Au' 'B1u' 'B2u' 'B3u' 'B2u' 'B3u' 'Ag' 'Ag' 'B2g' 'B3g' 'Ag' 'B1g'
 'B1u' 'B2u' 'B3u' 'Au' 'B1u' 'B2u' 'B3u' 'B1u' 'B2u' 'B3u' 'Ag' 'B1u'
 'B2u' 'B3u' 'Au' 'B1u' 'B2u' 'B3u' 'Ag' 'B2g' 'B3g' 'Ag' 'B1g' 'B1u'
 'B2u' 'B3u' 'Ag' 'Ag' 'B2g' 'B3g' 'Ag' 'B1g' 'B1u' 'B2u' 'B3u' 'Ag']
irreps of each MO ['Ag' 'Ag' 'B2u' 'B3u' 'B1u' 'Ag' 'B2u' 'B3u' 'B1u' 'B2u' 'B3u' 'B1u' 'Ag'
 'Ag' 'B2g' 'B3g' 'Ag' 'B1g' 'Ag' 'B1g' 'B2g' 'B3g' 'Ag' 'B1u' 'B2u' 'B3u'
 'Au' 'B1u' 'B2u' 'B3u' 'B2u' 'B3u' 'B1u' 'Ag' 'Ag' 'B1g' 'B2g' 'B3g' 'Ag'
 'B1u' 'B2u' 'B3u' 'Au' 'B1u' 'B2u' 'B3u' 'B2u' 'B3u' 'B1u' 'Ag' 'B1u'
 'B2u' 'B3u' 'Au' 'B1u' 'B2u' 'B3u' 'Ag' 'B1g' 'B2g' 'B3g' 'Ag' 'B1u'
 'B2u' 'B3u' 'Ag' 'Ag' 'B2g' 'B3g' 'Ag' 'B1g' 'B1u' 'B2u' 'B3u' 'Ag']
irreps of each MO ['Ag' 'Ag' 'B3u' 'B2u' 'B1u' 'Ag' 'B1u' 'B2u' 'B3u' 'B1u' 'B3u' 'B2u' 'Ag'
 'Ag' 'B2g' 'B3g' 'B1g' 'Ag' 'Ag' 'B2g' 'B3g' 'B1g' 'Ag' 'B1u' 'B3u' 'B2u'
 'B1u' 'B1u' 'Au' 'B2u' 'B3u' 'B2u' 'B3u' 'Ag' 'Ag' 'B2g' 'B3g' 'Ag' 'B1g'
 'B1u' 'B3u' 'B2u' 'B1u' 'Au' 'B3u' 'B2u' 'B1u' 'B2u' 'B3u' 'Ag' 'B1u'
 'B3u' 'B2u' 'Au' 'B1u' 'B2u' 'B3u' 'Ag' 'B2g' 'B3g' 'B1g' 'Ag' 'B1u'
 'B3u' 'B2u' 'Ag' 'Ag' 'B2g' 'B3g' 'Ag' 'B1g' 'B1u' 'B3u' 'B2u' 'Ag']
