#INFO: **** input file is /lustre09/project/6004934/jaafar1/PySCF-MRCC/Oxygen/NewChapter-Anion/1-/dawCV5Z/input.py ****
import pyscf
from pyscf import cc, lib, tools, scf, symm, ao2mo
from pyscf.gto.basis import parse_gaussian
from pyscf.scf import atom_hf

name = 'out'
mol = pyscf.M(
    atom = '''
        O
    ''',
    unit = 'angstrom',
    basis = {
            'O' : parse_gaussian.load('O-d-aug-cc-pwCV5Z.gbs', 'O')
    },
    charge = -1,
    spin = 1,
    symmetry = True,
    verbose = 9,
    symmetry_subgroup = 'D2h',
    output = name +'.txt',
    max_memory = 64000,
)

original_AtomSphAverageRHF = atom_hf.AtomSphAverageRHF

class CustomAtomSphAverageRHF(original_AtomSphAverageRHF):
    def __init__(self, mol):
        super().__init__(mol)
        self.max_cycle = 9999
        self.direct_scf = False

atom_hf.AtomSphAverageRHF = CustomAtomSphAverageRHF

mf = mol.UHF().set(
    conv_tol=1e-13,
    max_cycle=9999,
    ddm_tol=1e-12,
    direct_scf=False,
    chkfile=name + '.chk',
    init_guess='atom',
    irrep_nelec={'Ag': 4, 'B3u': 2, 'B2u': 2, 'B1u': 1}
)

mf.kernel()

atom_hf.AtomSphAverageRHF = original_AtomSphAverageRHF

#pyscf.tools.fcidump.from_chkfile_uhf('FCIdump',name+'.chk',tol=1e-18, float_format='% 0.20E',molpro_orbsym=False,orbsym=None)
pyscf.tools.fcidump.from_scf_uhf(mf,'fort.55',tol=1e-18, float_format='% 0.20E',molpro_orbsym=False)
#MRCCInterface.run_mrcc(mf, fort_file='fort.55', mrcc_input_file='MINP', tol=1e-18, float_format='% 0.20E', molpro_orbsym=False)
#INFO: ******************** input file end ********************


System: uname_result(system='Linux', node='rc32117', release='5.14.0-687.5.4.el9_8.x86_64', version='#1 SMP PREEMPT_DYNAMIC Thu May 28 09:20:26 EDT 2026', machine='x86_64')  Threads 4
Python 3.13.2 (main, Feb  5 2025, 15:06:39) [GCC 13.3.0]
numpy 2.2.2  scipy 1.15.1  h5py 3.13.0
Date: Sat Jun  6 22:03:45 2026
PySCF version 2.10.0
PySCF path  /home/jaafar1/links/projects/rrg-tzeng/jaafar1/VENV/MRCCInterface/lib/python3.13/site-packages/pyscf

[CONFIG] ARGPARSE = False
[CONFIG] DEBUG = False
[CONFIG] MAX_MEMORY = 4000
[CONFIG] TMPDIR = /tmp
[CONFIG] UNIT = angstrom
[CONFIG] VERBOSE = 3
[CONFIG] conf_file = None
[INPUT] verbose = 9
[INPUT] max_memory = 64000 
[INPUT] num. atoms = 1
[INPUT] num. electrons = 9
[INPUT] charge = -1
[INPUT] spin (= nelec alpha-beta = 2S) = 1
[INPUT] symmetry True subgroup D2h
[INPUT] Mole.unit = angstrom
[INPUT] Symbol           X                Y                Z      unit          X                Y                Z       unit  Magmom
[INPUT]  1 O      0.000000000000   0.000000000000   0.000000000000 AA    0.000000000000   0.000000000000   0.000000000000 Bohr   0.0
[INPUT] ---------------- BASIS SET ---------------- 
[INPUT] l, kappa, [nprim/nctr], expnt,             c_1 c_2 ...
[INPUT] O
[INPUT] 0    0    [1    /1   ]  133.9                1
[INPUT] 0    0    [1    /1   ]  61.449               1
[INPUT] 0    0    [1    /1   ]  28.2                 1
[INPUT] 0    0    [14   /2   ]  164200            2.6e-05 -6e-06
                                24590             0.000205 -4.6e-05
                                5592              0.001076 -0.000244
                                1582              0.004522 -0.001031
                                516.1             0.016108 -0.003688
                                187.2             0.049085 -0.011514
                                73.93             0.124857 -0.030435
                                31.22             0.251686 -0.068147
                                13.81             0.36242 -0.120368
                                6.256             0.279051 -0.14826
                                2.776             0.063552 0.009905
                                1.138             0.001063 0.384286
                                0.46              0.001144 0.536805
                                0.1829            -4e-05 0.202687
[INPUT] 0    0    [1    /1   ]  12.941               1
[INPUT] 0    0    [1    /1   ]  2.776                1
[INPUT] 0    0    [1    /1   ]  1.138                1
[INPUT] 0    0    [1    /1   ]  0.46                 1
[INPUT] 0    0    [1    /1   ]  0.1829               1
[INPUT] 0    0    [1    /1   ]  0.0655               1
[INPUT] 0    0    [1    /1   ]  0.0235               1
[INPUT] 1    0    [1    /1   ]  169.998              1
[INPUT] 1    0    [1    /1   ]  69.387               1
[INPUT] 1    0    [1    /1   ]  28.321               1
[INPUT] 1    0    [1    /1   ]  11.56                1
[INPUT] 1    0    [1    /1   ]  2.094                1
[INPUT] 1    0    [1    /1   ]  0.8471               1
[INPUT] 1    0    [8    /1   ]  195.5             0.000918
                                46.16             0.007388
                                14.58             0.034958
                                5.296             0.115431
                                2.094             0.256803
                                0.8471            0.373938
                                0.3368            0.343447
                                0.1285            0.129706
[INPUT] 1    0    [1    /1   ]  0.3368               1
[INPUT] 1    0    [1    /1   ]  0.1285               1
[INPUT] 1    0    [1    /1   ]  0.0446               1
[INPUT] 1    0    [1    /1   ]  0.0155               1
[INPUT] 2    0    [1    /1   ]  99.026               1
[INPUT] 2    0    [1    /1   ]  37.245               1
[INPUT] 2    0    [1    /1   ]  14.008               1
[INPUT] 2    0    [1    /1   ]  5.879                1
[INPUT] 2    0    [1    /1   ]  2.307                1
[INPUT] 2    0    [1    /1   ]  0.905                1
[INPUT] 2    0    [1    /1   ]  0.355                1
[INPUT] 2    0    [1    /1   ]  0.131                1
[INPUT] 2    0    [1    /1   ]  0.0483               1
[INPUT] 3    0    [1    /1   ]  38.737               1
[INPUT] 3    0    [1    /1   ]  12.653               1
[INPUT] 3    0    [1    /1   ]  4.016                1
[INPUT] 3    0    [1    /1   ]  1.554                1
[INPUT] 3    0    [1    /1   ]  0.601                1
[INPUT] 3    0    [1    /1   ]  0.237                1
[INPUT] 3    0    [1    /1   ]  0.0935               1
[INPUT] 4    0    [1    /1   ]  14.886               1
[INPUT] 4    0    [1    /1   ]  3.35                 1
[INPUT] 4    0    [1    /1   ]  1.189                1
[INPUT] 4    0    [1    /1   ]  0.517                1
[INPUT] 4    0    [1    /1   ]  0.225                1
[INPUT] 5    0    [1    /1   ]  2.319                1
[INPUT] 5    0    [1    /1   ]  1.024                1
[INPUT] 5    0    [1    /1   ]  0.452                1

nuclear repulsion = 0
point group symmetry = SO3, use subgroup D2h
symmetry origin: [0. 0. 0.]
symmetry axis x: [1. 0. 0.]
symmetry axis y: [0. 1. 0.]
symmetry axis z: [0. 0. 1.]
num. orbitals of irrep Ag = 45
num. orbitals of irrep B1g = 19
num. orbitals of irrep B2g = 19
num. orbitals of irrep B3g = 19
num. orbitals of irrep Au = 13
num. orbitals of irrep B1u = 34
num. orbitals of irrep B2u = 34
num. orbitals of irrep B3u = 34
number of shells = 46
number of NR pGTOs = 250
number of NR cGTOs = 217
basis = {'O': [[0, [133.9, 1.0]], [0, [61.449, 1.0]], [0, [28.2, 1.0]], [0, [164200.0, 2.6e-05, -6e-06], [24590.0, 0.000205, -4.6e-05], [5592.0, 0.001076, -0.000244], [1582.0, 0.004522, -0.001031], [516.1, 0.016108, -0.003688], [187.2, 0.049085, -0.011514], [73.93, 0.124857, -0.030435], [31.22, 0.251686, -0.068147], [13.81, 0.36242, -0.120368], [6.256, 0.279051, -0.14826], [2.776, 0.063552, 0.009905], [1.138, 0.001063, 0.384286], [0.46, 0.001144, 0.536805], [0.1829, -4e-05, 0.202687]], [0, [12.941, 1.0]], [0, [2.776, 1.0]], [0, [1.138, 1.0]], [0, [0.46, 1.0]], [0, [0.1829, 1.0]], [0, [0.0655, 1.0]], [0, [0.0235, 1.0]], [1, [169.998, 1.0]], [1, [69.387, 1.0]], [1, [28.321, 1.0]], [1, [11.56, 1.0]], [1, [2.094, 1.0]], [1, [0.8471, 1.0]], [1, [195.5, 0.000918], [46.16, 0.007388], [14.58, 0.034958], [5.296, 0.115431], [2.094, 0.256803], [0.8471, 0.373938], [0.3368, 0.343447], [0.1285, 0.129706]], [1, [0.3368, 1.0]], [1, [0.1285, 1.0]], [1, [0.0446, 1.0]], [1, [0.0155, 1.0]], [2, [99.026, 1.0]], [2, [37.245, 1.0]], [2, [14.008, 1.0]], [2, [5.879, 1.0]], [2, [2.307, 1.0]], [2, [0.905, 1.0]], [2, [0.355, 1.0]], [2, [0.131, 1.0]], [2, [0.0483, 1.0]], [3, [38.737, 1.0]], [3, [12.653, 1.0]], [3, [4.016, 1.0]], [3, [1.554, 1.0]], [3, [0.601, 1.0]], [3, [0.237, 1.0]], [3, [0.0935, 1.0]], [4, [14.886, 1.0]], [4, [3.35, 1.0]], [4, [1.189, 1.0]], [4, [0.517, 1.0]], [4, [0.225, 1.0]], [5, [2.319, 1.0]], [5, [1.024, 1.0]], [5, [0.452, 1.0]]]}
ecp = {}
bas 0, expnt(s) = [133.9]
bas 1, expnt(s) = [61.449]
bas 2, expnt(s) = [28.2]
bas 3, expnt(s) = [1.642e+05 2.459e+04 5.592e+03 1.582e+03 5.161e+02 1.872e+02 7.393e+01
 3.122e+01 1.381e+01 6.256e+00 2.776e+00 1.138e+00 4.600e-01 1.829e-01]
bas 4, expnt(s) = [12.941]
bas 5, expnt(s) = [2.776]
bas 6, expnt(s) = [1.138]
bas 7, expnt(s) = [0.46]
bas 8, expnt(s) = [0.1829]
bas 9, expnt(s) = [0.0655]
bas 10, expnt(s) = [0.0235]
bas 11, expnt(s) = [169.998]
bas 12, expnt(s) = [69.387]
bas 13, expnt(s) = [28.321]
bas 14, expnt(s) = [11.56]
bas 15, expnt(s) = [2.094]
bas 16, expnt(s) = [0.8471]
bas 17, expnt(s) = [1.955e+02 4.616e+01 1.458e+01 5.296e+00 2.094e+00 8.471e-01 3.368e-01
 1.285e-01]
bas 18, expnt(s) = [0.3368]
bas 19, expnt(s) = [0.1285]
bas 20, expnt(s) = [0.0446]
bas 21, expnt(s) = [0.0155]
bas 22, expnt(s) = [99.026]
bas 23, expnt(s) = [37.245]
bas 24, expnt(s) = [14.008]
bas 25, expnt(s) = [5.879]
bas 26, expnt(s) = [2.307]
bas 27, expnt(s) = [0.905]
bas 28, expnt(s) = [0.355]
bas 29, expnt(s) = [0.131]
bas 30, expnt(s) = [0.0483]
bas 31, expnt(s) = [38.737]
bas 32, expnt(s) = [12.653]
bas 33, expnt(s) = [4.016]
bas 34, expnt(s) = [1.554]
bas 35, expnt(s) = [0.601]
bas 36, expnt(s) = [0.237]
bas 37, expnt(s) = [0.0935]
bas 38, expnt(s) = [14.886]
bas 39, expnt(s) = [3.35]
bas 40, expnt(s) = [1.189]
bas 41, expnt(s) = [0.517]
bas 42, expnt(s) = [0.225]
bas 43, expnt(s) = [2.319]
bas 44, expnt(s) = [1.024]
bas 45, expnt(s) = [0.452]
CPU time:         1.32
arg.atm = [[ 8 20  1 23  0  0]]
arg.bas = [[  0   0   1   1   0  24  25   0]
 [  0   0   1   1   0  26  27   0]
 [  0   0   1   1   0  28  29   0]
 [  0   0  14   2   0  30  44   0]
 [  0   0   1   1   0  72  73   0]
 [  0   0   1   1   0  74  75   0]
 [  0   0   1   1   0  76  77   0]
 [  0   0   1   1   0  78  79   0]
 [  0   0   1   1   0  80  81   0]
 [  0   0   1   1   0  82  83   0]
 [  0   0   1   1   0  84  85   0]
 [  0   1   1   1   0  86  87   0]
 [  0   1   1   1   0  88  89   0]
 [  0   1   1   1   0  90  91   0]
 [  0   1   1   1   0  92  93   0]
 [  0   1   1   1   0  94  95   0]
 [  0   1   1   1   0  96  97   0]
 [  0   1   8   1   0  98 106   0]
 [  0   1   1   1   0 114 115   0]
 [  0   1   1   1   0 116 117   0]
 [  0   1   1   1   0 118 119   0]
 [  0   1   1   1   0 120 121   0]
 [  0   2   1   1   0 122 123   0]
 [  0   2   1   1   0 124 125   0]
 [  0   2   1   1   0 126 127   0]
 [  0   2   1   1   0 128 129   0]
 [  0   2   1   1   0 130 131   0]
 [  0   2   1   1   0 132 133   0]
 [  0   2   1   1   0 134 135   0]
 [  0   2   1   1   0 136 137   0]
 [  0   2   1   1   0 138 139   0]
 [  0   3   1   1   0 140 141   0]
 [  0   3   1   1   0 142 143   0]
 [  0   3   1   1   0 144 145   0]
 [  0   3   1   1   0 146 147   0]
 [  0   3   1   1   0 148 149   0]
 [  0   3   1   1   0 150 151   0]
 [  0   3   1   1   0 152 153   0]
 [  0   4   1   1   0 154 155   0]
 [  0   4   1   1   0 156 157   0]
 [  0   4   1   1   0 158 159   0]
 [  0   4   1   1   0 160 161   0]
 [  0   4   1   1   0 162 163   0]
 [  0   5   1   1   0 164 165   0]
 [  0   5   1   1   0 166 167   0]
 [  0   5   1   1   0 168 169   0]]
arg.env = [ 0.00000000e+00  0.00000000e+00  0.00000000e+00  0.00000000e+00
  0.00000000e+00  0.00000000e+00  0.00000000e+00  0.00000000e+00
  0.00000000e+00  0.00000000e+00  0.00000000e+00  0.00000000e+00
  0.00000000e+00  0.00000000e+00  0.00000000e+00  0.00000000e+00
  0.00000000e+00  0.00000000e+00  0.00000000e+00  0.00000000e+00
  0.00000000e+00  0.00000000e+00  0.00000000e+00  0.00000000e+00
  1.33900000e+02  9.94490084e+01  6.14490000e+01  5.54499475e+01
  2.82000000e+01  3.09173210e+01  1.64200000e+05  2.45900000e+04
  5.59200000e+03  1.58200000e+03  5.16100000e+02  1.87200000e+02
  7.39300000e+01  3.12200000e+01  1.38100000e+01  6.25600000e+00
  2.77600000e+00  1.13800000e+00  4.60000000e-01  1.82900000e-01
  5.35819082e-01  1.01703927e+00  1.75793417e+00  2.86582971e+00
  4.40663398e+00  6.27614751e+00  7.95322720e+00  8.39844140e+00
  6.55952480e+00  2.78882396e+00  3.45309703e-01  2.95906786e-03
  1.61439336e-03 -2.82641047e-05 -1.23650525e-01 -2.28213629e-01
 -3.98639240e-01 -6.53398860e-01 -1.00891866e+00 -1.47221235e+00
 -1.93866908e+00 -2.27397803e+00 -2.17856816e+00 -1.48170381e+00
  5.38187894e-02  1.06973476e+00  7.57529891e-01  1.43219127e-01
  1.29410000e+01  1.72381598e+01  2.77600000e+00  5.43349936e+00
  1.13800000e+00  2.78369546e+00  4.60000000e-01  1.41118320e+00
  1.82900000e-01  7.06602718e-01  6.55000000e-02  3.27111641e-01
  2.35000000e-02  1.51640749e-01  1.69998000e+02  1.79076731e+03
  6.93870000e+01  5.84227548e+02  2.83210000e+01  1.90598783e+02
  1.15600000e+01  6.21844339e+01  2.09400000e+00  7.34861067e+00
  8.47100000e-01  2.37084272e+00  1.95500000e+02  4.61600000e+01
  1.45800000e+01  5.29600000e+00  2.09400000e+00  8.47100000e-01
  3.36800000e-01  1.28500000e-01  1.95776499e+00  2.59324508e+00
  2.90554702e+00  2.70546459e+00  1.88714541e+00  8.86548253e-01
  2.57074652e-01  2.91120911e-02  3.36800000e-01  7.48513256e-01
  1.28500000e-01  2.24446740e-01  4.46000000e-02  5.97933610e-02
  1.55000000e-02  1.59550811e-02  9.90260000e+01  8.11130161e+03
  3.72450000e+01  1.46520485e+03  1.40080000e+01  2.64659580e+02
  5.87900000e+00  5.79175846e+01  2.30700000e+00  1.12684109e+01
  9.05000000e-01  2.19111110e+00  3.55000000e-01  4.26019035e-01
  1.31000000e-01  7.44310513e-02  4.83000000e-02  1.29848478e-02
  3.87370000e+01  7.38403633e+03  1.26530000e+01  5.95587747e+02
  4.01600000e+00  4.50345882e+01  1.55400000e+00  5.31832832e+00
  6.01000000e-01  6.27303808e-01  2.37000000e-01  7.73026069e-02
  9.35000000e-02  9.53534665e-03  1.48860000e+01  2.20830290e+03
  3.35000000e+00  3.65420007e+01  1.18900000e+00  2.11674822e+00
  5.17000000e-01  2.14297989e-01  2.25000000e-01  2.17480853e-02
  2.31900000e+00  1.22033815e+01  1.02400000e+00  8.56500488e-01
  4.52000000e-01  6.00416570e-02]
ecpbas  = []


******** <class 'pyscf.scf.uhf_symm.SymAdaptedUHF'> ********
method = SymAdaptedUHF
initial guess = atom
damping factor = 0
level_shift factor = 0
DIIS = <class 'pyscf.scf.diis.CDIIS'>
diis_start_cycle = 1
diis_space = 8
diis_damp = 0
SCF conv_tol = 1e-13
SCF conv_tol_grad = None
SCF ddm_tol = 1e-12
SCF max_cycles = 9999
direct_scf = False
chkfile to save SCF result = out.chk
max_memory 64000 MB (current use 124 MB)
number electrons alpha = 5  beta = 4
irrep_nelec {'Ag': 4, 'B3u': 2, 'B2u': 2, 'B1u': 1}
Freeze 9 electrons in irreps ['Ag', 'B3u', 'B2u', 'B1u']
    0 free electrons in irreps B1g B2g B3g Au
cond(S) = 942563.8404881983

WARN: Singularity detected in overlap matrix (condition number = 9.43e+05). SCF may be inaccurate and hard to converge.

Set gradient conv threshold to 3.16228e-07
Spherically averaged atomic HF for {'O'}


******** <class '__main__.CustomAtomSphAverageRHF'> ********
method = CustomAtomSphAverageRHF
initial guess = minao
damping factor = 0
level_shift factor = 0
DIIS = <class 'pyscf.scf.diis.CDIIS'>
diis_start_cycle = 1
diis_space = 8
diis_damp = 0
SCF conv_tol = 1e-09
SCF conv_tol_grad = None
SCF ddm_tol = 1e-10
SCF max_cycles = 9999
direct_scf = False
chkfile to save SCF result = /tmp/tmp11pn4bgk
max_memory 64000 MB (current use 128 MB)
atom = O
Set gradient conv threshold to 3.16228e-05
Initial guess from minao.
Nelec from initial guess = 7.999999171514225
E1 = -103.09250900493385  E_coul = 28.805810550249117
init E= -74.2866984546847
l = 0  e_0 = -20.7014765
l = 0  e_1 = -1.26311666
l = 0  e_2 = 0.0369222169
l = 0  e_3 = 0.209860848
l = 0  e_4 = 0.828587743
l = 0  e_5 = 2.86337382
l = 0  e_6 = 9.01226031
l = 0  e_7 = 25.8931065
l = 0  e_8 = 68.3472854
l = 0  e_9 = 172.582425
l = 0  e_10 = 433.748295
l = 0  e_11 = 1502.1776
l = 1  e_0 = -0.391059352
l = 1  e_1 = 0.0354721566
l = 1  e_2 = 0.153753559
l = 1  e_3 = 0.536986652
l = 1  e_4 = 1.66605976
l = 1  e_5 = 4.72621307
l = 1  e_6 = 12.8869928
l = 1  e_7 = 34.0666519
l = 1  e_8 = 89.1578725
l = 1  e_9 = 236.463295
l = 1  e_10 = 640.214238
l = 2  e_0 = 0.153051862
l = 2  e_1 = 0.506680007
l = 2  e_2 = 1.33368803
l = 2  e_3 = 3.28867339
l = 2  e_4 = 8.21673328
l = 2  e_5 = 21.1836539
l = 2  e_6 = 54.9914906
l = 2  e_7 = 148.657369
l = 2  e_8 = 423.99731
l = 3  e_0 = 0.387713294
l = 3  e_1 = 1.16952259
l = 3  e_2 = 2.99362551
l = 3  e_3 = 7.40915524
l = 3  e_4 = 18.8765601
l = 3  e_5 = 55.9780803
l = 3  e_6 = 181.044241
l = 4  e_0 = 1.13796423
l = 4  e_1 = 3.0756143
l = 4  e_2 = 7.34389416
l = 4  e_3 = 19.1199824
l = 4  e_4 = 76.4283201
l = 5  e_0 = 2.73482301
l = 5  e_1 = 7.05381784
l = 5  e_2 = 16.7041039
    CPU time for initialize scf     11.69 sec, wall time      3.18 sec
l = 0  e_0 = -20.7014765
l = 0  e_1 = -1.26311666
l = 0  e_2 = 0.0369222169
l = 0  e_3 = 0.209860848
l = 0  e_4 = 0.828587743
l = 0  e_5 = 2.86337382
l = 0  e_6 = 9.01226031
l = 0  e_7 = 25.8931065
l = 0  e_8 = 68.3472854
l = 0  e_9 = 172.582425
l = 0  e_10 = 433.748295
l = 0  e_11 = 1502.1776
l = 1  e_0 = -0.391059352
l = 1  e_1 = 0.0354721566
l = 1  e_2 = 0.153753559
l = 1  e_3 = 0.536986652
l = 1  e_4 = 1.66605976
l = 1  e_5 = 4.72621307
l = 1  e_6 = 12.8869928
l = 1  e_7 = 34.0666519
l = 1  e_8 = 89.1578725
l = 1  e_9 = 236.463295
l = 1  e_10 = 640.214238
l = 2  e_0 = 0.153051862
l = 2  e_1 = 0.506680007
l = 2  e_2 = 1.33368803
l = 2  e_3 = 3.28867339
l = 2  e_4 = 8.21673328
l = 2  e_5 = 21.1836539
l = 2  e_6 = 54.9914906
l = 2  e_7 = 148.657369
l = 2  e_8 = 423.99731
l = 3  e_0 = 0.387713294
l = 3  e_1 = 1.16952259
l = 3  e_2 = 2.99362551
l = 3  e_3 = 7.40915524
l = 3  e_4 = 18.8765601
l = 3  e_5 = 55.9780803
l = 3  e_6 = 181.044241
l = 4  e_0 = 1.13796423
l = 4  e_1 = 3.0756143
l = 4  e_2 = 7.34389416
l = 4  e_3 = 19.1199824
l = 4  e_4 = 76.4283201
l = 5  e_0 = 2.73482301
l = 5  e_1 = 7.05381784
l = 5  e_2 = 16.7041039
l = 0  occ = 2 + 0
l = 1  occ = 0 + 1.333
l = 2  occ = 0 + 0
l = 3  occ = 0 + 0
E1 = -102.38750639270549  E_coul = 28.091736865122634
cycle= 1 E= -74.2957695275828  delta_E= -0.00907  |g|=    0  |ddm|= 0.291
    CPU time for cycle= 1      1.04 sec, wall time      0.26 sec
diis-norm(errvec)=0.135582
diis-c [-0.01838238  1.        ]
l = 0  e_0 = -20.8762575
l = 0  e_1 = -1.33252964
l = 0  e_2 = 0.0360540517
l = 0  e_3 = 0.204631658
l = 0  e_4 = 0.81059484
l = 0  e_5 = 2.81765275
l = 0  e_6 = 8.92503254
l = 0  e_7 = 25.7649913
l = 0  e_8 = 68.1894855
l = 0  e_9 = 172.405767
l = 0  e_10 = 433.557893
l = 0  e_11 = 1501.97171
l = 1  e_0 = -0.447196284
l = 1  e_1 = 0.0353200806
l = 1  e_2 = 0.151833617
l = 1  e_3 = 0.52634111
l = 1  e_4 = 1.63331627
l = 1  e_5 = 4.65871091
l = 1  e_6 = 12.7792802
l = 1  e_7 = 33.9239623
l = 1  e_8 = 88.9904701
l = 1  e_9 = 236.280184
l = 1  e_10 = 640.018379
l = 2  e_0 = 0.152784354
l = 2  e_1 = 0.502234759
l = 2  e_2 = 1.31473169
l = 2  e_3 = 3.24492508
l = 2  e_4 = 8.1363826
l = 2  e_5 = 21.0624207
l = 2  e_6 = 54.8381679
l = 2  e_7 = 148.482778
l = 2  e_8 = 423.808226
l = 3  e_0 = 0.387382365
l = 3  e_1 = 1.16481982
l = 3  e_2 = 2.97183162
l = 3  e_3 = 7.35161225
l = 3  e_4 = 18.7711308
l = 3  e_5 = 55.8269139
l = 3  e_6 = 180.867736
l = 4  e_0 = 1.13644086
l = 4  e_1 = 3.06436175
l = 4  e_2 = 7.30490789
l = 4  e_3 = 19.0283933
l = 4  e_4 = 76.2723347
l = 5  e_0 = 2.72987496
l = 5  e_1 = 7.02962009
l = 5  e_2 = 16.6384396
l = 0  occ = 2 + 0
l = 1  occ = 0 + 1.333
l = 2  occ = 0 + 0
l = 3  occ = 0 + 0
E1 = -102.75694401088639  E_coul = 28.459922184122462
cycle= 2 E= -74.2970218267639  delta_E= -0.00125  |g|=    0  |ddm|= 0.0939
    CPU time for cycle= 2      1.04 sec, wall time      0.26 sec
diis-norm(errvec)=0.0589515
diis-c [-3.09620038e-04  2.95041753e-01  7.04958247e-01]
l = 0  e_0 = -20.8114903
l = 0  e_1 = -1.3101491
l = 0  e_2 = 0.0363694807
l = 0  e_3 = 0.206259354
l = 0  e_4 = 0.816218742
l = 0  e_5 = 2.83319283
l = 0  e_6 = 8.95635896
l = 0  e_7 = 25.8120695
l = 0  e_8 = 68.2479223
l = 0  e_9 = 172.471397
l = 0  e_10 = 433.628421
l = 0  e_11 = 1502.04615
l = 1  e_0 = -0.425763644
l = 1  e_1 = 0.0353826795
l = 1  e_2 = 0.152613092
l = 1  e_3 = 0.530497177
l = 1  e_4 = 1.64562498
l = 1  e_5 = 4.68371918
l = 1  e_6 = 12.8189825
l = 1  e_7 = 33.9765668
l = 1  e_8 = 89.0523816
l = 1  e_9 = 236.348152
l = 1  e_10 = 640.090615
l = 2  e_0 = 0.152912652
l = 2  e_1 = 0.503832493
l = 2  e_2 = 1.32155594
l = 2  e_3 = 3.26096181
l = 2  e_4 = 8.16594928
l = 2  e_5 = 21.1073052
l = 2  e_6 = 54.8949542
l = 2  e_7 = 148.547634
l = 2  e_8 = 423.878574
l = 3  e_0 = 0.387541049
l = 3  e_1 = 1.16652493
l = 3  e_2 = 2.97962307
l = 3  e_3 = 7.37256611
l = 3  e_4 = 18.8100595
l = 3  e_5 = 55.8828813
l = 3  e_6 = 180.933343
l = 4  e_0 = 1.13705393
l = 4  e_1 = 3.06836239
l = 4  e_2 = 7.31889599
l = 4  e_3 = 19.0621023
l = 4  e_4 = 76.3300742
l = 5  e_0 = 2.73169581
l = 5  e_1 = 7.03817818
l = 5  e_2 = 16.6623272
l = 0  occ = 2 + 0
l = 1  occ = 0 + 1.333
l = 2  occ = 0 + 0
l = 3  occ = 0 + 0
E1 = -102.62485963642064  E_coul = 28.327453710945278
cycle= 3 E= -74.2974059254754  delta_E= -0.000384  |g|=    0  |ddm|= 0.0272
    CPU time for cycle= 3      1.04 sec, wall time      0.26 sec
diis-norm(errvec)=0.0067065
diis-c [-1.86095157e-06 -9.67826720e-02 -1.05921537e-01  1.20270421e+00]
l = 0  e_0 = -20.8148893
l = 0  e_1 = -1.31230171
l = 0  e_2 = 0.0363451775
l = 0  e_3 = 0.206073934
l = 0  e_4 = 0.815644221
l = 0  e_5 = 2.83202501
l = 0  e_6 = 8.95446697
l = 0  e_7 = 25.8094641
l = 0  e_8 = 68.2448052
l = 0  e_9 = 172.468116
l = 0  e_10 = 433.625319
l = 0  e_11 = 1502.04343
l = 1  e_0 = -0.426684636
l = 1  e_1 = 0.0353814313
l = 1  e_2 = 0.15258824
l = 1  e_3 = 0.530315387
l = 1  e_4 = 1.64503366
l = 1  e_5 = 4.68243795
l = 1  e_6 = 12.8168568
l = 1  e_7 = 33.9737093
l = 1  e_8 = 89.0491005
l = 1  e_9 = 236.344861
l = 1  e_10 = 640.087618
l = 2  e_0 = 0.152911164
l = 2  e_1 = 0.503724603
l = 2  e_2 = 1.32115955
l = 2  e_3 = 3.26009702
l = 2  e_4 = 8.16437485
l = 2  e_5 = 21.1049007
l = 2  e_6 = 54.891841
l = 2  e_7 = 148.544215
l = 2  e_8 = 423.875361
l = 3  e_0 = 0.387538779
l = 3  e_1 = 1.16641435
l = 3  e_2 = 2.97915499
l = 3  e_3 = 7.37142731
l = 3  e_4 = 18.8079949
l = 3  e_5 = 55.8797799
l = 3  e_6 = 180.929839
l = 4  e_0 = 1.13702442
l = 4  e_1 = 3.0681008
l = 4  e_2 = 7.3180903
l = 4  e_3 = 19.0603321
l = 4  e_4 = 76.3268548
l = 5  e_0 = 2.73157999
l = 5  e_1 = 7.03764029
l = 5  e_2 = 16.6610401
l = 0  occ = 2 + 0
l = 1  occ = 0 + 1.333
l = 2  occ = 0 + 0
l = 3  occ = 0 + 0
E1 = -102.63269563273519  E_coul = 28.335285308076916
cycle= 4 E= -74.2974103246583  delta_E= -4.4e-06  |g|=    0  |ddm|= 0.00483
    CPU time for cycle= 4      1.04 sec, wall time      0.26 sec
diis-norm(errvec)=0.000257786
diis-c [-4.05779580e-09  1.48951514e-03  2.11310604e-03 -5.38461812e-02
  1.05024356e+00]
l = 0  e_0 = -20.8150266
l = 0  e_1 = -1.31239811
l = 0  e_2 = 0.0363406793
l = 0  e_3 = 0.206056713
l = 0  e_4 = 0.81560494
l = 0  e_5 = 2.83195291
l = 0  e_6 = 8.9543653
l = 0  e_7 = 25.8093416
l = 0  e_8 = 68.2446724
l = 0  e_9 = 172.467987
l = 0  e_10 = 433.62521
l = 0  e_11 = 1502.04335
l = 1  e_0 = -0.426738569
l = 1  e_1 = 0.0353809821
l = 1  e_2 = 0.152583428
l = 1  e_3 = 0.53029451
l = 1  e_4 = 1.64498582
l = 1  e_5 = 4.68235878
l = 1  e_6 = 12.8167492
l = 1  e_7 = 33.9735816
l = 1  e_8 = 89.0489655
l = 1  e_9 = 236.344736
l = 1  e_10 = 640.087519
l = 2  e_0 = 0.152909028
l = 2  e_1 = 0.503710252
l = 2  e_2 = 1.3211253
l = 2  e_3 = 3.26003346
l = 2  e_4 = 8.16428219
l = 2  e_5 = 21.1047824
l = 2  e_6 = 54.8917047
l = 2  e_7 = 148.544077
l = 2  e_8 = 423.875244
l = 3  e_0 = 0.387535856
l = 3  e_1 = 1.16639699
l = 3  e_2 = 2.97911007
l = 3  e_3 = 7.37134892
l = 3  e_4 = 18.8078855
l = 3  e_5 = 55.879642
l = 3  e_6 = 180.929698
l = 4  e_0 = 1.13701515
l = 4  e_1 = 3.06806779
l = 4  e_2 = 7.31802479
l = 4  e_3 = 19.060231
l = 4  e_4 = 76.3267133
l = 5  e_0 = 2.73155865
l = 5  e_1 = 7.03758712
l = 5  e_2 = 16.6609542
l = 0  occ = 2 + 0
l = 1  occ = 0 + 1.333
l = 2  occ = 0 + 0
l = 3  occ = 0 + 0
E1 = -102.63300376586879  E_coul = 28.335593433332814
cycle= 5 E= -74.297410332536  delta_E= -7.88e-09  |g|=    0  |ddm|= 0.000135
    CPU time for cycle= 5      1.04 sec, wall time      0.26 sec
diis-norm(errvec)=1.1192e-05
diis-c [-1.37840709e-11 -9.36062005e-05 -2.17363633e-04  7.50727335e-03
 -1.97584914e-01  1.19038861e+00]
l = 0  e_0 = -20.815028
l = 0  e_1 = -1.31240135
l = 0  e_2 = 0.0363401292
l = 0  e_3 = 0.20605546
l = 0  e_4 = 0.815603193
l = 0  e_5 = 2.83195017
l = 0  e_6 = 8.95436286
l = 0  e_7 = 25.8093399
l = 0  e_8 = 68.2446708
l = 0  e_9 = 172.467985
l = 0  e_10 = 433.625208
l = 0  e_11 = 1502.04335
l = 1  e_0 = -0.426740635
l = 1  e_1 = 0.0353809461
l = 1  e_2 = 0.152583033
l = 1  e_3 = 0.530293061
l = 1  e_4 = 1.64498338
l = 1  e_5 = 4.68235602
l = 1  e_6 = 12.816747
l = 1  e_7 = 33.97358
l = 1  e_8 = 89.048964
l = 1  e_9 = 236.344735
l = 1  e_10 = 640.087517
l = 2  e_0 = 0.152908669
l = 2  e_1 = 0.503708791
l = 2  e_2 = 1.32112314
l = 2  e_3 = 3.26003038
l = 2  e_4 = 8.16427966
l = 2  e_5 = 21.1047807
l = 2  e_6 = 54.8917033
l = 2  e_7 = 148.544075
l = 2  e_8 = 423.875242
l = 3  e_0 = 0.387535382
l = 3  e_1 = 1.16639511
l = 3  e_2 = 2.97910691
l = 3  e_3 = 7.37134585
l = 3  e_4 = 18.8078835
l = 3  e_5 = 55.8796407
l = 3  e_6 = 180.929696
l = 4  e_0 = 1.13701387
l = 4  e_1 = 3.06806473
l = 4  e_2 = 7.31802128
l = 4  e_3 = 19.0602287
l = 4  e_4 = 76.3267121
l = 5  e_0 = 2.73155615
l = 5  e_1 = 7.03758331
l = 5  e_2 = 16.6609513
l = 0  occ = 2 + 0
l = 1  occ = 0 + 1.333
l = 2  occ = 0 + 0
l = 3  occ = 0 + 0
E1 = -102.63299142296367  E_coul = 28.335581090362325
cycle= 6 E= -74.2974103326013  delta_E= -6.54e-11  |g|=    0  |ddm|= 9.11e-06
    CPU time for cycle= 6      1.04 sec, wall time      0.26 sec
diis-norm(errvec)=1.3959e-06
diis-c [-1.00925386e-13 -3.00462956e-06  1.67380858e-05 -1.99810897e-04
  5.23977787e-03 -6.83240480e-02  1.06327035e+00]
l = 0  e_0 = -20.8150291
l = 0  e_1 = -1.31240204
l = 0  e_2 = 0.0363400941
l = 0  e_3 = 0.206055361
l = 0  e_4 = 0.815602953
l = 0  e_5 = 2.83194964
l = 0  e_6 = 8.95436203
l = 0  e_7 = 25.8093388
l = 0  e_8 = 68.2446697
l = 0  e_9 = 172.467984
l = 0  e_10 = 433.625207
l = 0  e_11 = 1502.04335
l = 1  e_0 = -0.426741206
l = 1  e_1 = 0.0353809426
l = 1  e_2 = 0.152582996
l = 1  e_3 = 0.530292898
l = 1  e_4 = 1.64498298
l = 1  e_5 = 4.68235533
l = 1  e_6 = 12.8167461
l = 1  e_7 = 33.9735789
l = 1  e_8 = 89.0489629
l = 1  e_9 = 236.344733
l = 1  e_10 = 640.087516
l = 2  e_0 = 0.152908648
l = 2  e_1 = 0.503708681
l = 2  e_2 = 1.32112285
l = 2  e_3 = 3.26002984
l = 2  e_4 = 8.16427885
l = 2  e_5 = 21.1047796
l = 2  e_6 = 54.8917022
l = 2  e_7 = 148.544074
l = 2  e_8 = 423.875241
l = 3  e_0 = 0.387535355
l = 3  e_1 = 1.16639498
l = 3  e_2 = 2.97910654
l = 3  e_3 = 7.37134517
l = 3  e_4 = 18.8078826
l = 3  e_5 = 55.8796396
l = 3  e_6 = 180.929695
l = 4  e_0 = 1.13701379
l = 4  e_1 = 3.06806448
l = 4  e_2 = 7.31802073
l = 4  e_3 = 19.0602278
l = 4  e_4 = 76.3267109
l = 5  e_0 = 2.73155599
l = 5  e_1 = 7.03758289
l = 5  e_2 = 16.6609505
l = 0  occ = 2 + 0
l = 1  occ = 0 + 1.333
l = 2  occ = 0 + 0
l = 3  occ = 0 + 0
E1 = -102.6329934503889  E_coul = 28.335583117787206
cycle= 7 E= -74.2974103326017  delta_E= -3.41e-13  |g|=    0  |ddm|= 8.4e-07
    CPU time for cycle= 7      1.04 sec, wall time      0.26 sec
diis-norm(errvec)=3.76129e-08
diis-c [-2.72108446e-16  7.02239460e-07 -4.99199931e-07 -9.23273731e-06
  2.94746773e-04  1.78968600e-03 -1.03841991e-01  1.10176659e+00]
l = 0  e_0 = -20.8150292
l = 0  e_1 = -1.31240204
l = 0  e_2 = 0.0363400933
l = 0  e_3 = 0.20605536
l = 0  e_4 = 0.815602951
l = 0  e_5 = 2.83194964
l = 0  e_6 = 8.95436202
l = 0  e_7 = 25.8093388
l = 0  e_8 = 68.2446697
l = 0  e_9 = 172.467984
l = 0  e_10 = 433.625207
l = 0  e_11 = 1502.04335
l = 1  e_0 = -0.426741211
l = 1  e_1 = 0.0353809426
l = 1  e_2 = 0.152582995
l = 1  e_3 = 0.530292896
l = 1  e_4 = 1.64498297
l = 1  e_5 = 4.68235533
l = 1  e_6 = 12.8167461
l = 1  e_7 = 33.9735789
l = 1  e_8 = 89.0489629
l = 1  e_9 = 236.344733
l = 1  e_10 = 640.087516
l = 2  e_0 = 0.152908647
l = 2  e_1 = 0.50370868
l = 2  e_2 = 1.32112284
l = 2  e_3 = 3.26002983
l = 2  e_4 = 8.16427884
l = 2  e_5 = 21.1047796
l = 2  e_6 = 54.8917022
l = 2  e_7 = 148.544074
l = 2  e_8 = 423.875241
l = 3  e_0 = 0.387535354
l = 3  e_1 = 1.16639498
l = 3  e_2 = 2.97910654
l = 3  e_3 = 7.37134516
l = 3  e_4 = 18.8078826
l = 3  e_5 = 55.8796396
l = 3  e_6 = 180.929695
l = 4  e_0 = 1.13701379
l = 4  e_1 = 3.06806448
l = 4  e_2 = 7.31802072
l = 4  e_3 = 19.0602278
l = 4  e_4 = 76.3267109
l = 5  e_0 = 2.73155599
l = 5  e_1 = 7.03758288
l = 5  e_2 = 16.6609505
l = 0  occ = 2 + 0
l = 1  occ = 0 + 1.333
l = 2  occ = 0 + 0
l = 3  occ = 0 + 0
E1 = -102.63299343224936  E_coul = 28.335583099647767
cycle= 8 E= -74.2974103326016  delta_E= 8.53e-14  |g|=    0  |ddm|= 1.92e-08
    CPU time for cycle= 8      1.04 sec, wall time      0.26 sec
diis-norm(errvec)=1.5927e-09
Linear dependence found in DIIS error vectors.
diis-c [-1.02903694e-15  3.09723232e-07 -1.02011089e-07 -5.97458565e-06
  1.80661540e-04  3.28540273e-04 -4.07025271e-02  4.92077442e-01
  5.48121651e-01]
l = 0  e_0 = -20.8150292
l = 0  e_1 = -1.31240204
l = 0  e_2 = 0.0363400933
l = 0  e_3 = 0.20605536
l = 0  e_4 = 0.815602951
l = 0  e_5 = 2.83194964
l = 0  e_6 = 8.95436202
l = 0  e_7 = 25.8093388
l = 0  e_8 = 68.2446697
l = 0  e_9 = 172.467984
l = 0  e_10 = 433.625207
l = 0  e_11 = 1502.04335
l = 1  e_0 = -0.426741211
l = 1  e_1 = 0.0353809426
l = 1  e_2 = 0.152582995
l = 1  e_3 = 0.530292896
l = 1  e_4 = 1.64498297
l = 1  e_5 = 4.68235533
l = 1  e_6 = 12.8167461
l = 1  e_7 = 33.9735789
l = 1  e_8 = 89.0489629
l = 1  e_9 = 236.344733
l = 1  e_10 = 640.087516
l = 2  e_0 = 0.152908647
l = 2  e_1 = 0.50370868
l = 2  e_2 = 1.32112284
l = 2  e_3 = 3.26002983
l = 2  e_4 = 8.16427884
l = 2  e_5 = 21.1047796
l = 2  e_6 = 54.8917022
l = 2  e_7 = 148.544074
l = 2  e_8 = 423.875241
l = 3  e_0 = 0.387535355
l = 3  e_1 = 1.16639498
l = 3  e_2 = 2.97910654
l = 3  e_3 = 7.37134516
l = 3  e_4 = 18.8078826
l = 3  e_5 = 55.8796396
l = 3  e_6 = 180.929695
l = 4  e_0 = 1.13701379
l = 4  e_1 = 3.06806448
l = 4  e_2 = 7.31802072
l = 4  e_3 = 19.0602278
l = 4  e_4 = 76.3267109
l = 5  e_0 = 2.73155599
l = 5  e_1 = 7.03758288
l = 5  e_2 = 16.6609505
l = 0  occ = 2 + 0
l = 1  occ = 0 + 1.333
l = 2  occ = 0 + 0
l = 3  occ = 0 + 0
E1 = -102.63299343246035  E_coul = 28.3355830998589
cycle= 9 E= -74.2974103326015  delta_E= 1.42e-13  |g|=    0  |ddm|= 1.32e-09
    CPU time for cycle= 9      1.04 sec, wall time      0.26 sec
diis-norm(errvec)=9.76354e-10
Linear dependence found in DIIS error vectors.
diis-c [-1.01887812e-15  3.55861300e-01 -4.37890098e-07  1.95100998e-06
  2.10833056e-05  8.99707139e-04 -3.18563255e-02  3.19462866e-01
  3.55609856e-01]
l = 0  e_0 = -20.8150292
l = 0  e_1 = -1.31240204
l = 0  e_2 = 0.0363400933
l = 0  e_3 = 0.20605536
l = 0  e_4 = 0.815602951
l = 0  e_5 = 2.83194964
l = 0  e_6 = 8.95436202
l = 0  e_7 = 25.8093388
l = 0  e_8 = 68.2446697
l = 0  e_9 = 172.467984
l = 0  e_10 = 433.625207
l = 0  e_11 = 1502.04335
l = 1  e_0 = -0.42674121
l = 1  e_1 = 0.0353809426
l = 1  e_2 = 0.152582995
l = 1  e_3 = 0.530292896
l = 1  e_4 = 1.64498297
l = 1  e_5 = 4.68235533
l = 1  e_6 = 12.8167461
l = 1  e_7 = 33.9735789
l = 1  e_8 = 89.0489629
l = 1  e_9 = 236.344733
l = 1  e_10 = 640.087516
l = 2  e_0 = 0.152908647
l = 2  e_1 = 0.50370868
l = 2  e_2 = 1.32112284
l = 2  e_3 = 3.26002983
l = 2  e_4 = 8.16427884
l = 2  e_5 = 21.1047796
l = 2  e_6 = 54.8917022
l = 2  e_7 = 148.544074
l = 2  e_8 = 423.875241
l = 3  e_0 = 0.387535355
l = 3  e_1 = 1.16639498
l = 3  e_2 = 2.97910654
l = 3  e_3 = 7.37134516
l = 3  e_4 = 18.8078826
l = 3  e_5 = 55.8796396
l = 3  e_6 = 180.929695
l = 4  e_0 = 1.13701379
l = 4  e_1 = 3.06806448
l = 4  e_2 = 7.31802072
l = 4  e_3 = 19.0602278
l = 4  e_4 = 76.3267109
l = 5  e_0 = 2.73155599
l = 5  e_1 = 7.03758288
l = 5  e_2 = 16.6609505
l = 0  occ = 2 + 0
l = 1  occ = 0 + 1.333
l = 2  occ = 0 + 0
l = 3  occ = 0 + 0
E1 = -102.63299343122968  E_coul = 28.335583098628113
cycle= 10 E= -74.2974103326016  delta_E= -1.14e-13  |g|=    0  |ddm|= 6.66e-10
    CPU time for cycle= 10      1.05 sec, wall time      0.26 sec
diis-norm(errvec)=8.51931e-10
Linear dependence found in DIIS error vectors.
diis-c [-2.96221523e-16  2.55985688e-01  2.56042391e-01 -4.35770728e-06
  1.73980738e-04 -7.14944422e-04 -1.05642888e-02  2.43221730e-01
  2.55859802e-01]
l = 0  e_0 = -20.8150292
l = 0  e_1 = -1.31240204
l = 0  e_2 = 0.0363400933
l = 0  e_3 = 0.20605536
l = 0  e_4 = 0.815602951
l = 0  e_5 = 2.83194964
l = 0  e_6 = 8.95436202
l = 0  e_7 = 25.8093388
l = 0  e_8 = 68.2446697
l = 0  e_9 = 172.467984
l = 0  e_10 = 433.625207
l = 0  e_11 = 1502.04335
l = 1  e_0 = -0.426741211
l = 1  e_1 = 0.0353809426
l = 1  e_2 = 0.152582995
l = 1  e_3 = 0.530292896
l = 1  e_4 = 1.64498297
l = 1  e_5 = 4.68235533
l = 1  e_6 = 12.8167461
l = 1  e_7 = 33.9735789
l = 1  e_8 = 89.0489629
l = 1  e_9 = 236.344733
l = 1  e_10 = 640.087516
l = 2  e_0 = 0.152908647
l = 2  e_1 = 0.50370868
l = 2  e_2 = 1.32112284
l = 2  e_3 = 3.26002983
l = 2  e_4 = 8.16427884
l = 2  e_5 = 21.1047796
l = 2  e_6 = 54.8917022
l = 2  e_7 = 148.544074
l = 2  e_8 = 423.875241
l = 3  e_0 = 0.387535355
l = 3  e_1 = 1.16639498
l = 3  e_2 = 2.97910654
l = 3  e_3 = 7.37134516
l = 3  e_4 = 18.8078826
l = 3  e_5 = 55.8796396
l = 3  e_6 = 180.929695
l = 4  e_0 = 1.13701379
l = 4  e_1 = 3.06806448
l = 4  e_2 = 7.31802072
l = 4  e_3 = 19.0602278
l = 4  e_4 = 76.3267109
l = 5  e_0 = 2.73155599
l = 5  e_1 = 7.03758288
l = 5  e_2 = 16.6609505
l = 0  occ = 2 + 0
l = 1  occ = 0 + 1.333
l = 2  occ = 0 + 0
l = 3  occ = 0 + 0
E1 = -102.63299343178915  E_coul = 28.335583099187588
cycle= 11 E= -74.2974103326016  delta_E= 1.42e-14  |g|=    0  |ddm|= 2.18e-10
    CPU time for cycle= 11      1.05 sec, wall time      0.26 sec
diis-norm(errvec)=8.65999e-10
Linear dependence found in DIIS error vectors.
diis-c [-1.11016878e-15  2.03085936e-01  2.03098971e-01  2.03096416e-01
  3.97996634e-05 -7.10703793e-05 -7.62563207e-03  1.95377105e-01
  2.02998475e-01]
l = 0  e_0 = -20.8150292
l = 0  e_1 = -1.31240204
l = 0  e_2 = 0.0363400933
l = 0  e_3 = 0.20605536
l = 0  e_4 = 0.815602951
l = 0  e_5 = 2.83194964
l = 0  e_6 = 8.95436202
l = 0  e_7 = 25.8093388
l = 0  e_8 = 68.2446697
l = 0  e_9 = 172.467984
l = 0  e_10 = 433.625207
l = 0  e_11 = 1502.04335
l = 1  e_0 = -0.42674121
l = 1  e_1 = 0.0353809426
l = 1  e_2 = 0.152582995
l = 1  e_3 = 0.530292896
l = 1  e_4 = 1.64498297
l = 1  e_5 = 4.68235533
l = 1  e_6 = 12.8167461
l = 1  e_7 = 33.9735789
l = 1  e_8 = 89.0489629
l = 1  e_9 = 236.344733
l = 1  e_10 = 640.087516
l = 2  e_0 = 0.152908647
l = 2  e_1 = 0.50370868
l = 2  e_2 = 1.32112284
l = 2  e_3 = 3.26002983
l = 2  e_4 = 8.16427884
l = 2  e_5 = 21.1047796
l = 2  e_6 = 54.8917022
l = 2  e_7 = 148.544074
l = 2  e_8 = 423.875241
l = 3  e_0 = 0.387535355
l = 3  e_1 = 1.16639498
l = 3  e_2 = 2.97910654
l = 3  e_3 = 7.37134516
l = 3  e_4 = 18.8078826
l = 3  e_5 = 55.8796396
l = 3  e_6 = 180.929695
l = 4  e_0 = 1.13701379
l = 4  e_1 = 3.06806448
l = 4  e_2 = 7.31802072
l = 4  e_3 = 19.0602278
l = 4  e_4 = 76.3267109
l = 5  e_0 = 2.73155599
l = 5  e_1 = 7.03758288
l = 5  e_2 = 16.6609505
l = 0  occ = 2 + 0
l = 1  occ = 0 + 1.333
l = 2  occ = 0 + 0
l = 3  occ = 0 + 0
E1 = -102.6329934297512  E_coul = 28.33558309714975
cycle= 12 E= -74.2974103326014  delta_E= 1.14e-13  |g|=    0  |ddm|= 1.03e-09
    CPU time for cycle= 12      1.04 sec, wall time      0.26 sec
diis-norm(errvec)=1.80374e-09
Linear dependence found in DIIS error vectors.
diis-c [-8.56967366e-16  1.67136491e-01  1.67071876e-01  1.67092773e-01
  1.66946397e-01  1.13622432e-05 -1.54427585e-03  1.66169156e-01
  1.67116221e-01]
l = 0  e_0 = -20.8150292
l = 0  e_1 = -1.31240204
l = 0  e_2 = 0.0363400933
l = 0  e_3 = 0.20605536
l = 0  e_4 = 0.815602951
l = 0  e_5 = 2.83194964
l = 0  e_6 = 8.95436202
l = 0  e_7 = 25.8093388
l = 0  e_8 = 68.2446697
l = 0  e_9 = 172.467984
l = 0  e_10 = 433.625207
l = 0  e_11 = 1502.04335
l = 1  e_0 = -0.42674121
l = 1  e_1 = 0.0353809426
l = 1  e_2 = 0.152582995
l = 1  e_3 = 0.530292897
l = 1  e_4 = 1.64498297
l = 1  e_5 = 4.68235533
l = 1  e_6 = 12.8167461
l = 1  e_7 = 33.9735789
l = 1  e_8 = 89.0489629
l = 1  e_9 = 236.344733
l = 1  e_10 = 640.087516
l = 2  e_0 = 0.152908647
l = 2  e_1 = 0.50370868
l = 2  e_2 = 1.32112284
l = 2  e_3 = 3.26002983
l = 2  e_4 = 8.16427884
l = 2  e_5 = 21.1047796
l = 2  e_6 = 54.8917022
l = 2  e_7 = 148.544074
l = 2  e_8 = 423.875241
l = 3  e_0 = 0.387535355
l = 3  e_1 = 1.16639498
l = 3  e_2 = 2.97910654
l = 3  e_3 = 7.37134516
l = 3  e_4 = 18.8078826
l = 3  e_5 = 55.8796396
l = 3  e_6 = 180.929695
l = 4  e_0 = 1.13701379
l = 4  e_1 = 3.06806448
l = 4  e_2 = 7.31802072
l = 4  e_3 = 19.0602278
l = 4  e_4 = 76.3267109
l = 5  e_0 = 2.73155599
l = 5  e_1 = 7.03758288
l = 5  e_2 = 16.6609505
l = 0  occ = 2 + 0
l = 1  occ = 0 + 1.333
l = 2  occ = 0 + 0
l = 3  occ = 0 + 0
E1 = -102.63299343052853  E_coul = 28.33558309792701
cycle= 13 E= -74.2974103326015  delta_E= -7.11e-14  |g|=    0  |ddm|= 6.91e-10
    CPU time for cycle= 13      1.04 sec, wall time      0.26 sec
diis-norm(errvec)=1.52843e-09
Linear dependence found in DIIS error vectors.
diis-c [-3.64797427e-17  1.43210340e-01  1.43156148e-01  1.43173843e-01
  1.43053788e-01  1.43111224e-01 -1.25103172e-03  1.42348146e-01
  1.43197542e-01]
l = 0  e_0 = -20.8150292
l = 0  e_1 = -1.31240204
l = 0  e_2 = 0.0363400933
l = 0  e_3 = 0.20605536
l = 0  e_4 = 0.815602951
l = 0  e_5 = 2.83194964
l = 0  e_6 = 8.95436202
l = 0  e_7 = 25.8093388
l = 0  e_8 = 68.2446697
l = 0  e_9 = 172.467984
l = 0  e_10 = 433.625207
l = 0  e_11 = 1502.04335
l = 1  e_0 = -0.42674121
l = 1  e_1 = 0.0353809426
l = 1  e_2 = 0.152582995
l = 1  e_3 = 0.530292896
l = 1  e_4 = 1.64498297
l = 1  e_5 = 4.68235533
l = 1  e_6 = 12.8167461
l = 1  e_7 = 33.9735789
l = 1  e_8 = 89.0489629
l = 1  e_9 = 236.344733
l = 1  e_10 = 640.087516
l = 2  e_0 = 0.152908647
l = 2  e_1 = 0.50370868
l = 2  e_2 = 1.32112284
l = 2  e_3 = 3.26002983
l = 2  e_4 = 8.16427884
l = 2  e_5 = 21.1047796
l = 2  e_6 = 54.8917022
l = 2  e_7 = 148.544074
l = 2  e_8 = 423.875241
l = 3  e_0 = 0.387535355
l = 3  e_1 = 1.16639498
l = 3  e_2 = 2.97910654
l = 3  e_3 = 7.37134516
l = 3  e_4 = 18.8078826
l = 3  e_5 = 55.8796396
l = 3  e_6 = 180.929695
l = 4  e_0 = 1.13701379
l = 4  e_1 = 3.06806448
l = 4  e_2 = 7.31802072
l = 4  e_3 = 19.0602278
l = 4  e_4 = 76.3267109
l = 5  e_0 = 2.73155599
l = 5  e_1 = 7.03758288
l = 5  e_2 = 16.6609505
l = 0  occ = 2 + 0
l = 1  occ = 0 + 1.333
l = 2  occ = 0 + 0
l = 3  occ = 0 + 0
E1 = -102.63299343104772  E_coul = 28.335583098446065
cycle= 14 E= -74.2974103326017  delta_E= -1.42e-13  |g|=    0  |ddm|= 1.12e-10
    CPU time for cycle= 14      1.04 sec, wall time      0.26 sec
diis-norm(errvec)=1.24954e-09
Linear dependence found in DIIS error vectors.
diis-c [-3.83815955e-16  1.25000000e-01  1.25000000e-01  1.25000000e-01
  1.25000000e-01  1.25000000e-01  1.25000000e-01  1.25000000e-01
  1.25000000e-01]
l = 0  e_0 = -20.8150292
l = 0  e_1 = -1.31240204
l = 0  e_2 = 0.0363400933
l = 0  e_3 = 0.20605536
l = 0  e_4 = 0.815602951
l = 0  e_5 = 2.83194964
l = 0  e_6 = 8.95436202
l = 0  e_7 = 25.8093388
l = 0  e_8 = 68.2446697
l = 0  e_9 = 172.467984
l = 0  e_10 = 433.625207
l = 0  e_11 = 1502.04335
l = 1  e_0 = -0.42674121
l = 1  e_1 = 0.0353809426
l = 1  e_2 = 0.152582995
l = 1  e_3 = 0.530292896
l = 1  e_4 = 1.64498297
l = 1  e_5 = 4.68235533
l = 1  e_6 = 12.8167461
l = 1  e_7 = 33.9735789
l = 1  e_8 = 89.0489629
l = 1  e_9 = 236.344733
l = 1  e_10 = 640.087516
l = 2  e_0 = 0.152908647
l = 2  e_1 = 0.50370868
l = 2  e_2 = 1.32112284
l = 2  e_3 = 3.26002983
l = 2  e_4 = 8.16427884
l = 2  e_5 = 21.1047796
l = 2  e_6 = 54.8917022
l = 2  e_7 = 148.544074
l = 2  e_8 = 423.875241
l = 3  e_0 = 0.387535355
l = 3  e_1 = 1.16639498
l = 3  e_2 = 2.97910654
l = 3  e_3 = 7.37134516
l = 3  e_4 = 18.8078826
l = 3  e_5 = 55.8796396
l = 3  e_6 = 180.929695
l = 4  e_0 = 1.13701379
l = 4  e_1 = 3.06806448
l = 4  e_2 = 7.31802072
l = 4  e_3 = 19.0602278
l = 4  e_4 = 76.3267109
l = 5  e_0 = 2.73155599
l = 5  e_1 = 7.03758288
l = 5  e_2 = 16.6609505
l = 0  occ = 2 + 0
l = 1  occ = 0 + 1.333
l = 2  occ = 0 + 0
l = 3  occ = 0 + 0
E1 = -102.63299343268095  E_coul = 28.335583100079397
cycle= 15 E= -74.2974103326015  delta_E= 1.14e-13  |g|=    0  |ddm|= 3.22e-10
    CPU time for cycle= 15      1.04 sec, wall time      0.26 sec
diis-norm(errvec)=9.35806e-10
Linear dependence found in DIIS error vectors.
diis-c [-2.89052492e-16  1.25000000e-01  1.25000000e-01  1.25000000e-01
  1.25000000e-01  1.25000000e-01  1.25000000e-01  1.25000000e-01
  1.25000000e-01]
l = 0  e_0 = -20.8150292
l = 0  e_1 = -1.31240204
l = 0  e_2 = 0.0363400933
l = 0  e_3 = 0.20605536
l = 0  e_4 = 0.815602951
l = 0  e_5 = 2.83194964
l = 0  e_6 = 8.95436202
l = 0  e_7 = 25.8093388
l = 0  e_8 = 68.2446697
l = 0  e_9 = 172.467984
l = 0  e_10 = 433.625207
l = 0  e_11 = 1502.04335
l = 1  e_0 = -0.426741211
l = 1  e_1 = 0.0353809426
l = 1  e_2 = 0.152582995
l = 1  e_3 = 0.530292896
l = 1  e_4 = 1.64498297
l = 1  e_5 = 4.68235533
l = 1  e_6 = 12.8167461
l = 1  e_7 = 33.9735789
l = 1  e_8 = 89.0489629
l = 1  e_9 = 236.344733
l = 1  e_10 = 640.087516
l = 2  e_0 = 0.152908647
l = 2  e_1 = 0.50370868
l = 2  e_2 = 1.32112284
l = 2  e_3 = 3.26002983
l = 2  e_4 = 8.16427884
l = 2  e_5 = 21.1047796
l = 2  e_6 = 54.8917022
l = 2  e_7 = 148.544074
l = 2  e_8 = 423.875241
l = 3  e_0 = 0.387535355
l = 3  e_1 = 1.16639498
l = 3  e_2 = 2.97910654
l = 3  e_3 = 7.37134516
l = 3  e_4 = 18.8078826
l = 3  e_5 = 55.8796396
l = 3  e_6 = 180.929695
l = 4  e_0 = 1.13701379
l = 4  e_1 = 3.06806448
l = 4  e_2 = 7.31802072
l = 4  e_3 = 19.0602278
l = 4  e_4 = 76.3267109
l = 5  e_0 = 2.73155599
l = 5  e_1 = 7.03758288
l = 5  e_2 = 16.6609505
l = 0  occ = 2 + 0
l = 1  occ = 0 + 1.333
l = 2  occ = 0 + 0
l = 3  occ = 0 + 0
E1 = -102.63299343290902  E_coul = 28.335583100307304
cycle= 16 E= -74.2974103326017  delta_E= -1.71e-13  |g|=    0  |ddm|= 4.38e-10
    CPU time for cycle= 16      1.04 sec, wall time      0.26 sec
diis-norm(errvec)=3.10079e-10
Linear dependence found in DIIS error vectors.
diis-c [-2.89052492e-16  1.25000000e-01  1.25000000e-01  1.25000000e-01
  1.25000000e-01  1.25000000e-01  1.25000000e-01  1.25000000e-01
  1.25000000e-01]
l = 0  e_0 = -20.8150292
l = 0  e_1 = -1.31240204
l = 0  e_2 = 0.0363400933
l = 0  e_3 = 0.20605536
l = 0  e_4 = 0.815602951
l = 0  e_5 = 2.83194964
l = 0  e_6 = 8.95436202
l = 0  e_7 = 25.8093388
l = 0  e_8 = 68.2446697
l = 0  e_9 = 172.467984
l = 0  e_10 = 433.625207
l = 0  e_11 = 1502.04335
l = 1  e_0 = -0.426741211
l = 1  e_1 = 0.0353809426
l = 1  e_2 = 0.152582995
l = 1  e_3 = 0.530292896
l = 1  e_4 = 1.64498297
l = 1  e_5 = 4.68235533
l = 1  e_6 = 12.8167461
l = 1  e_7 = 33.9735789
l = 1  e_8 = 89.0489629
l = 1  e_9 = 236.344733
l = 1  e_10 = 640.087516
l = 2  e_0 = 0.152908647
l = 2  e_1 = 0.50370868
l = 2  e_2 = 1.32112284
l = 2  e_3 = 3.26002983
l = 2  e_4 = 8.16427884
l = 2  e_5 = 21.1047796
l = 2  e_6 = 54.8917022
l = 2  e_7 = 148.544074
l = 2  e_8 = 423.875241
l = 3  e_0 = 0.387535355
l = 3  e_1 = 1.16639498
l = 3  e_2 = 2.97910654
l = 3  e_3 = 7.37134516
l = 3  e_4 = 18.8078826
l = 3  e_5 = 55.8796396
l = 3  e_6 = 180.929695
l = 4  e_0 = 1.13701379
l = 4  e_1 = 3.06806448
l = 4  e_2 = 7.31802072
l = 4  e_3 = 19.0602278
l = 4  e_4 = 76.3267109
l = 5  e_0 = 2.73155599
l = 5  e_1 = 7.03758288
l = 5  e_2 = 16.6609505
l = 0  occ = 2 + 0
l = 1  occ = 0 + 1.333
l = 2  occ = 0 + 0
l = 3  occ = 0 + 0
E1 = -102.6329934328576  E_coul = 28.335583100256105
cycle= 17 E= -74.2974103326015  delta_E= 2.13e-13  |g|=    0  |ddm|= 4.07e-11
    CPU time for cycle= 17      1.04 sec, wall time      0.26 sec
l = 0  e_0 = -20.8150292
l = 0  e_1 = -1.31240204
l = 0  e_2 = 0.0363400933
l = 0  e_3 = 0.20605536
l = 0  e_4 = 0.815602951
l = 0  e_5 = 2.83194964
l = 0  e_6 = 8.95436202
l = 0  e_7 = 25.8093388
l = 0  e_8 = 68.2446697
l = 0  e_9 = 172.467984
l = 0  e_10 = 433.625207
l = 0  e_11 = 1502.04335
l = 1  e_0 = -0.426741211
l = 1  e_1 = 0.0353809426
l = 1  e_2 = 0.152582995
l = 1  e_3 = 0.530292896
l = 1  e_4 = 1.64498297
l = 1  e_5 = 4.68235533
l = 1  e_6 = 12.8167461
l = 1  e_7 = 33.9735789
l = 1  e_8 = 89.0489629
l = 1  e_9 = 236.344733
l = 1  e_10 = 640.087516
l = 2  e_0 = 0.152908647
l = 2  e_1 = 0.50370868
l = 2  e_2 = 1.32112284
l = 2  e_3 = 3.26002983
l = 2  e_4 = 8.16427884
l = 2  e_5 = 21.1047796
l = 2  e_6 = 54.8917022
l = 2  e_7 = 148.544074
l = 2  e_8 = 423.875241
l = 3  e_0 = 0.387535355
l = 3  e_1 = 1.16639498
l = 3  e_2 = 2.97910654
l = 3  e_3 = 7.37134516
l = 3  e_4 = 18.8078826
l = 3  e_5 = 55.8796396
l = 3  e_6 = 180.929695
l = 4  e_0 = 1.13701379
l = 4  e_1 = 3.06806448
l = 4  e_2 = 7.31802072
l = 4  e_3 = 19.0602278
l = 4  e_4 = 76.3267109
l = 5  e_0 = 2.73155599
l = 5  e_1 = 7.03758288
l = 5  e_2 = 16.6609505
l = 0  occ = 2 + 0
l = 1  occ = 0 + 1.333
l = 2  occ = 0 + 0
l = 3  occ = 0 + 0
E1 = -102.63299343208645  E_coul = 28.33558309948496
Extra cycle  E= -74.2974103326015  delta_E= 1.42e-14  |g|=    0  |ddm|= 4.07e-11
    CPU time for scf_cycle     30.42 sec, wall time      7.89 sec
    CPU time for SCF     30.42 sec, wall time      7.89 sec
Atomic HF for atom  O  converged. SCF energy = -74.2974103326015

Atom O, E = -74.2974103326
Nelec from initial guess = (np.float64(3.999999999999996), np.float64(3.999999999999996))
E1 = -102.63299343208645  Ecoul = 28.33558309948496
init E= -74.2974103326015
    CPU time for initialize scf     42.94 sec, wall time     11.22 sec
alpha HOMO (B2u) = -0.426741210718957  LUMO (B3u) = 0.0353809425531054
alpha irrep_nelec = [2, 0, 0, 0, 0, 1, 1, 1]
beta  irrep_nelec = [2, 0, 0, 0, 0, 0, 1, 1]
alpha-Ag nocc = 2  HOMO = -1.31240204225071  LUMO = 0.0363400932705246
   mo_energy = [-2.08150292e+01 -1.31240204e+00  3.63400933e-02  1.52908647e-01
  1.52908647e-01  2.06055360e-01  5.03708680e-01  5.03708680e-01
  8.15602951e-01  1.13701379e+00  1.13701379e+00  1.13701379e+00
  1.32112284e+00  1.32112284e+00  2.83194964e+00  3.06806448e+00
  3.06806448e+00  3.06806448e+00  3.26002983e+00  3.26002983e+00
  7.31802072e+00  7.31802072e+00  7.31802072e+00  8.16427884e+00
  8.16427884e+00  8.95436202e+00  1.90602278e+01  1.90602278e+01
  1.90602278e+01  2.11047796e+01  2.11047796e+01  2.58093388e+01
  5.48917022e+01  5.48917022e+01  6.82446697e+01  7.63267109e+01
  7.63267109e+01  7.63267109e+01  1.48544074e+02  1.48544074e+02
  1.72467984e+02  4.23875241e+02  4.23875241e+02  4.33625207e+02
  1.50204335e+03]
alpha-B1g nocc = 0
   mo_energy = [1.52908647e-01 5.03708680e-01 1.13701379e+00 1.13701379e+00
 1.32112284e+00 3.06806448e+00 3.06806448e+00 3.26002983e+00
 7.31802072e+00 7.31802072e+00 8.16427884e+00 1.90602278e+01
 1.90602278e+01 2.11047796e+01 5.48917022e+01 7.63267109e+01
 7.63267109e+01 1.48544074e+02 4.23875241e+02]
alpha-B2g nocc = 0
   mo_energy = [1.52908647e-01 5.03708680e-01 1.13701379e+00 1.13701379e+00
 1.32112284e+00 3.06806448e+00 3.06806448e+00 3.26002983e+00
 7.31802072e+00 7.31802072e+00 8.16427884e+00 1.90602278e+01
 1.90602278e+01 2.11047796e+01 5.48917022e+01 7.63267109e+01
 7.63267109e+01 1.48544074e+02 4.23875241e+02]
alpha-B3g nocc = 0
   mo_energy = [1.52908647e-01 5.03708680e-01 1.13701379e+00 1.13701379e+00
 1.32112284e+00 3.06806448e+00 3.06806448e+00 3.26002983e+00
 7.31802072e+00 7.31802072e+00 8.16427884e+00 1.90602278e+01
 1.90602278e+01 2.11047796e+01 5.48917022e+01 7.63267109e+01
 7.63267109e+01 1.48544074e+02 4.23875241e+02]
alpha-Au nocc = 0
   mo_energy = [  0.38753535   1.16639498   2.73155599   2.73155599   2.97910654
   7.03758288   7.03758288   7.37134516  16.6609505   16.6609505
  18.80788257  55.87963957 180.92969491]
alpha-B1u nocc = 1  HOMO = -0.426741210719001  LUMO = 0.0353809425531562
   mo_energy = [-4.26741211e-01  3.53809426e-02  1.52582995e-01  3.87535355e-01
  3.87535355e-01  5.30292896e-01  1.16639498e+00  1.16639498e+00
  1.64498297e+00  2.73155599e+00  2.73155599e+00  2.73155599e+00
  2.97910654e+00  2.97910654e+00  4.68235533e+00  7.03758288e+00
  7.03758288e+00  7.03758288e+00  7.37134516e+00  7.37134516e+00
  1.28167461e+01  1.66609505e+01  1.66609505e+01  1.66609505e+01
  1.88078826e+01  1.88078826e+01  3.39735789e+01  5.58796396e+01
  5.58796396e+01  8.90489629e+01  1.80929695e+02  1.80929695e+02
  2.36344733e+02  6.40087516e+02]
alpha-B2u nocc = 1  HOMO = -0.426741210718957  LUMO = 0.0353809425531102
   mo_energy = [-4.26741211e-01  3.53809426e-02  1.52582995e-01  3.87535355e-01
  3.87535355e-01  5.30292896e-01  1.16639498e+00  1.16639498e+00
  1.64498297e+00  2.73155599e+00  2.73155599e+00  2.73155599e+00
  2.97910654e+00  2.97910654e+00  4.68235533e+00  7.03758288e+00
  7.03758288e+00  7.03758288e+00  7.37134516e+00  7.37134516e+00
  1.28167461e+01  1.66609505e+01  1.66609505e+01  1.66609505e+01
  1.88078826e+01  1.88078826e+01  3.39735789e+01  5.58796396e+01
  5.58796396e+01  8.90489629e+01  1.80929695e+02  1.80929695e+02
  2.36344733e+02  6.40087516e+02]
alpha-B3u nocc = 1  HOMO = -0.426741210718989  LUMO = 0.0353809425531054
   mo_energy = [-4.26741211e-01  3.53809426e-02  1.52582995e-01  3.87535355e-01
  3.87535355e-01  5.30292896e-01  1.16639498e+00  1.16639498e+00
  1.64498297e+00  2.73155599e+00  2.73155599e+00  2.73155599e+00
  2.97910654e+00  2.97910654e+00  4.68235533e+00  7.03758288e+00
  7.03758288e+00  7.03758288e+00  7.37134516e+00  7.37134516e+00
  1.28167461e+01  1.66609505e+01  1.66609505e+01  1.66609505e+01
  1.88078826e+01  1.88078826e+01  3.39735789e+01  5.58796396e+01
  5.58796396e+01  8.90489629e+01  1.80929695e+02  1.80929695e+02
  2.36344733e+02  6.40087516e+02]
beta-Ag nocc = 2  HOMO = -1.31240204225071  LUMO = 0.0363400932705246
   mo_energy = [-2.08150292e+01 -1.31240204e+00  3.63400933e-02  1.52908647e-01
  1.52908647e-01  2.06055360e-01  5.03708680e-01  5.03708680e-01
  8.15602951e-01  1.13701379e+00  1.13701379e+00  1.13701379e+00
  1.32112284e+00  1.32112284e+00  2.83194964e+00  3.06806448e+00
  3.06806448e+00  3.06806448e+00  3.26002983e+00  3.26002983e+00
  7.31802072e+00  7.31802072e+00  7.31802072e+00  8.16427884e+00
  8.16427884e+00  8.95436202e+00  1.90602278e+01  1.90602278e+01
  1.90602278e+01  2.11047796e+01  2.11047796e+01  2.58093388e+01
  5.48917022e+01  5.48917022e+01  6.82446697e+01  7.63267109e+01
  7.63267109e+01  7.63267109e+01  1.48544074e+02  1.48544074e+02
  1.72467984e+02  4.23875241e+02  4.23875241e+02  4.33625207e+02
  1.50204335e+03]
beta-B1g nocc = 0
   mo_energy = [1.52908647e-01 5.03708680e-01 1.13701379e+00 1.13701379e+00
 1.32112284e+00 3.06806448e+00 3.06806448e+00 3.26002983e+00
 7.31802072e+00 7.31802072e+00 8.16427884e+00 1.90602278e+01
 1.90602278e+01 2.11047796e+01 5.48917022e+01 7.63267109e+01
 7.63267109e+01 1.48544074e+02 4.23875241e+02]
beta-B2g nocc = 0
   mo_energy = [1.52908647e-01 5.03708680e-01 1.13701379e+00 1.13701379e+00
 1.32112284e+00 3.06806448e+00 3.06806448e+00 3.26002983e+00
 7.31802072e+00 7.31802072e+00 8.16427884e+00 1.90602278e+01
 1.90602278e+01 2.11047796e+01 5.48917022e+01 7.63267109e+01
 7.63267109e+01 1.48544074e+02 4.23875241e+02]
beta-B3g nocc = 0
   mo_energy = [1.52908647e-01 5.03708680e-01 1.13701379e+00 1.13701379e+00
 1.32112284e+00 3.06806448e+00 3.06806448e+00 3.26002983e+00
 7.31802072e+00 7.31802072e+00 8.16427884e+00 1.90602278e+01
 1.90602278e+01 2.11047796e+01 5.48917022e+01 7.63267109e+01
 7.63267109e+01 1.48544074e+02 4.23875241e+02]
beta-Au nocc = 0
   mo_energy = [  0.38753535   1.16639498   2.73155599   2.73155599   2.97910654
   7.03758288   7.03758288   7.37134516  16.6609505   16.6609505
  18.80788257  55.87963957 180.92969491]
beta-B1u nocc = 0
   mo_energy = [-4.26741211e-01  3.53809426e-02  1.52582995e-01  3.87535355e-01
  3.87535355e-01  5.30292896e-01  1.16639498e+00  1.16639498e+00
  1.64498297e+00  2.73155599e+00  2.73155599e+00  2.73155599e+00
  2.97910654e+00  2.97910654e+00  4.68235533e+00  7.03758288e+00
  7.03758288e+00  7.03758288e+00  7.37134516e+00  7.37134516e+00
  1.28167461e+01  1.66609505e+01  1.66609505e+01  1.66609505e+01
  1.88078826e+01  1.88078826e+01  3.39735789e+01  5.58796396e+01
  5.58796396e+01  8.90489629e+01  1.80929695e+02  1.80929695e+02
  2.36344733e+02  6.40087516e+02]
beta-B2u nocc = 1  HOMO = -0.426741210718957  LUMO = 0.0353809425531102
   mo_energy = [-4.26741211e-01  3.53809426e-02  1.52582995e-01  3.87535355e-01
  3.87535355e-01  5.30292896e-01  1.16639498e+00  1.16639498e+00
  1.64498297e+00  2.73155599e+00  2.73155599e+00  2.73155599e+00
  2.97910654e+00  2.97910654e+00  4.68235533e+00  7.03758288e+00
  7.03758288e+00  7.03758288e+00  7.37134516e+00  7.37134516e+00
  1.28167461e+01  1.66609505e+01  1.66609505e+01  1.66609505e+01
  1.88078826e+01  1.88078826e+01  3.39735789e+01  5.58796396e+01
  5.58796396e+01  8.90489629e+01  1.80929695e+02  1.80929695e+02
  2.36344733e+02  6.40087516e+02]
beta-B3u nocc = 1  HOMO = -0.426741210718989  LUMO = 0.0353809425531054
   mo_energy = [-4.26741211e-01  3.53809426e-02  1.52582995e-01  3.87535355e-01
  3.87535355e-01  5.30292896e-01  1.16639498e+00  1.16639498e+00
  1.64498297e+00  2.73155599e+00  2.73155599e+00  2.73155599e+00
  2.97910654e+00  2.97910654e+00  4.68235533e+00  7.03758288e+00
  7.03758288e+00  7.03758288e+00  7.37134516e+00  7.37134516e+00
  1.28167461e+01  1.66609505e+01  1.66609505e+01  1.66609505e+01
  1.88078826e+01  1.88078826e+01  3.39735789e+01  5.58796396e+01
  5.58796396e+01  8.90489629e+01  1.80929695e+02  1.80929695e+02
  2.36344733e+02  6.40087516e+02]
multiplicity <S^2> = 0.75  2S+1 = 2
E1 = -108.79876173173247  Ecoul = 34.07461018844211
cycle= 1 E= -74.7241515432904  delta_E= -0.427  |g|= 0.394  |ddm|= 0.606
    CPU time for cycle= 1      2.07 sec, wall time      0.52 sec
diis-norm(errvec)=0.556971
diis-c [-0.31021644  1.        ]
alpha HOMO (B2u) = 0.0171295160590849  LUMO (B1u) = 0.141432777476735
alpha irrep_nelec = [2, 0, 0, 0, 0, 1, 1, 1]
beta  irrep_nelec = [2, 0, 0, 0, 0, 0, 1, 1]
alpha-Ag nocc = 2  HOMO = -0.716919560014552  LUMO = 0.188005409685153
   mo_energy = [-1.97933871e+01 -7.16919560e-01  1.88005410e-01  3.16424916e-01
  3.19010004e-01  4.53281586e-01  7.73553452e-01  7.86198061e-01
  1.19979048e+00  1.41190367e+00  1.41501244e+00  1.42442906e+00
  1.72266740e+00  1.76018711e+00  3.40230580e+00  3.47415603e+00
  3.48296205e+00  3.50974349e+00  3.80254295e+00  3.86766455e+00
  7.88371708e+00  7.90117215e+00  7.95404135e+00  8.86103837e+00
  8.94257938e+00  9.71285000e+00  1.98198900e+01  1.98446269e+01
  1.99191945e+01  2.19466726e+01  2.20280614e+01  2.67113750e+01
  5.58393208e+01  5.59044552e+01  6.92339644e+01  7.72867297e+01
  7.73067774e+01  7.73669786e+01  1.49557920e+02  1.49598834e+02
  1.73502102e+02  4.24922059e+02  4.24941819e+02  4.34679322e+02
  1.50310565e+03]
alpha-B1g nocc = 0
   mo_energy = [3.19010004e-01 7.86198061e-01 1.41501244e+00 1.42442906e+00
 1.76018711e+00 3.48296205e+00 3.50974349e+00 3.86766455e+00
 7.90117215e+00 7.95404135e+00 8.94257938e+00 1.98446269e+01
 1.99191945e+01 2.20280614e+01 5.59044552e+01 7.73067774e+01
 7.73669786e+01 1.49598834e+02 4.24941819e+02]
alpha-B2g nocc = 0
   mo_energy = [3.17075646e-01 7.76671257e-01 1.41267958e+00 1.41891872e+00
 1.73173127e+00 3.47635201e+00 3.49405242e+00 3.81833561e+00
 7.88807386e+00 7.92310275e+00 8.88112883e+00 1.98260689e+01
 1.98756300e+01 2.19669462e+01 5.58556135e+01 7.72917407e+01
 7.73318506e+01 1.49568159e+02 4.24927010e+02]
alpha-B3g nocc = 0
   mo_energy = [3.17075646e-01 7.76671257e-01 1.41267958e+00 1.41891872e+00
 1.73173127e+00 3.47635201e+00 3.49405242e+00 3.81833561e+00
 7.88807386e+00 7.92310275e+00 8.88112883e+00 1.98260689e+01
 1.98756300e+01 2.19669462e+01 5.58556135e+01 7.72917407e+01
 7.73318506e+01 1.49568159e+02 4.24927010e+02]
alpha-Au nocc = 0
   mo_energy = [  0.58967801   1.48924338   3.08880309   3.10090616   3.46103536
   7.55095469   7.5786525    8.03555159  17.35445993  17.39890651
  19.6464697   56.85681288 181.9708402 ]
alpha-B1u nocc = 1  HOMO = -0.0519463437110123  LUMO = 0.141432777476735
   mo_energy = [-5.19463437e-02  1.41432777e-01  3.36528907e-01  5.87509432e-01
  5.89678009e-01  8.35908558e-01  1.48087447e+00  1.48924338e+00
  2.10703306e+00  3.08475783e+00  3.08880309e+00  3.10090616e+00
  3.43992382e+00  3.46103536e+00  5.30941599e+00  7.54172173e+00
  7.55095469e+00  7.57865250e+00  7.99993717e+00  8.03555159e+00
  1.35961113e+01  1.73396867e+01  1.73544599e+01  1.73989065e+01
  1.96047392e+01  1.96464697e+01  3.48722315e+01  5.68228345e+01
  5.68568129e+01  9.00291301e+01  1.81952025e+02  1.81970840e+02
  2.37371677e+02  6.41137928e+02]
alpha-B2u nocc = 1  HOMO = 0.0171295160590849  LUMO = 0.142330642912275
   mo_energy = [1.71295161e-02 1.42330643e-01 3.43203216e-01 5.88052134e-01
 5.92398047e-01 8.59701318e-01 1.48296610e+00 1.49976814e+00
 2.15546176e+00 3.08576984e+00 3.09385079e+00 3.10996718e+00
 3.44518349e+00 3.48776783e+00 5.37845167e+00 7.54403032e+00
 7.56249350e+00 7.59945218e+00 8.00881221e+00 8.08055457e+00
 1.36733652e+01 1.73433781e+01 1.73729560e+01 1.74323693e+01
 1.96151559e+01 1.96988871e+01 3.49417225e+01 5.68313267e+01
 5.68993219e+01 9.00792764e+01 1.81956729e+02 1.81994361e+02
 2.37401189e+02 6.41151868e+02]
alpha-B3u nocc = 1  HOMO = 0.017129516059064  LUMO = 0.142330642912233
   mo_energy = [1.71295161e-02 1.42330643e-01 3.43203216e-01 5.88052134e-01
 5.92398047e-01 8.59701318e-01 1.48296610e+00 1.49976814e+00
 2.15546176e+00 3.08576984e+00 3.09385079e+00 3.10996718e+00
 3.44518349e+00 3.48776783e+00 5.37845167e+00 7.54403032e+00
 7.56249350e+00 7.59945218e+00 8.00881221e+00 8.08055457e+00
 1.36733652e+01 1.73433781e+01 1.73729560e+01 1.74323693e+01
 1.96151559e+01 1.96988871e+01 3.49417225e+01 5.68313267e+01
 5.68993219e+01 9.00792764e+01 1.81956729e+02 1.81994361e+02
 2.37401189e+02 6.41151868e+02]
beta-Ag nocc = 2  HOMO = -0.568889715482413  LUMO = 0.18836718752142
   mo_energy = [-1.97609387e+01 -5.68889715e-01  1.88367188e-01  3.16894111e-01
  3.19057752e-01  4.59317447e-01  7.84327503e-01  7.87373687e-01
  1.22126572e+00  1.41383276e+00  1.41651833e+00  1.42465021e+00
  1.76622198e+00  1.77541365e+00  3.43557132e+00  3.48463262e+00
  3.49118784e+00  3.51098303e+00  3.87861899e+00  3.89106523e+00
  7.90936663e+00  7.92128367e+00  7.95710767e+00  8.94082510e+00
  8.95375702e+00  9.74371784e+00  1.98559071e+01  1.98727840e+01
  1.99234962e+01  2.19983811e+01  2.20362726e+01  2.67312594e+01
  5.58654770e+01  5.59090887e+01  6.92442000e+01  7.73087129e+01
  7.73239238e+01  7.73695852e+01  1.49568263e+02  1.49600807e+02
  1.73506535e+02  4.24925134e+02  4.24942436e+02  4.34680921e+02
  1.50310608e+03]
beta-B1g nocc = 0
   mo_energy = [3.19057752e-01 7.87373687e-01 1.41651833e+00 1.42465021e+00
 1.76622198e+00 3.49118784e+00 3.51098303e+00 3.87861899e+00
 7.92128367e+00 7.95710767e+00 8.95375702e+00 1.98727840e+01
 1.99234962e+01 2.20362726e+01 5.59090887e+01 7.73239238e+01
 7.73695852e+01 1.49600807e+02 4.24942436e+02]
beta-B2g nocc = 0
   mo_energy = [3.17425999e-01 7.84955105e-01 1.41450299e+00 1.41989282e+00
 1.77259044e+00 3.48626854e+00 3.49941622e+00 3.88723548e+00
 7.91234433e+00 7.93619975e+00 8.94393010e+00 1.98601250e+01
 1.98938994e+01 2.20078165e+01 5.58763839e+01 7.73125152e+01
 7.73429442e+01 1.49576407e+02 4.24929468e+02]
beta-B3g nocc = 0
   mo_energy = [3.17425999e-01 7.84955105e-01 1.41450299e+00 1.41989282e+00
 1.77259044e+00 3.48626854e+00 3.49941622e+00 3.88723548e+00
 7.91234433e+00 7.93619975e+00 8.94393010e+00 1.98601250e+01
 1.98938994e+01 2.20078165e+01 5.58763839e+01 7.73125152e+01
 7.73429442e+01 1.49576407e+02 4.24929468e+02]
beta-Au nocc = 0
   mo_energy = [  0.59003624   1.49388072   3.09226363   3.10261837   3.47865906
   7.56229209   7.58431806   8.06590036  17.37475582  17.40910263
  19.67565691  56.87368893 181.97656097]
beta-B1u nocc = 0
   mo_energy = [1.41040138e-01 3.18646030e-01 5.88022877e-01 5.88465282e-01
 5.90036245e-01 1.00267099e+00 1.48847965e+00 1.49388072e+00
 2.23601114e+00 3.08881341e+00 3.09226363e+00 3.10261837e+00
 3.46859103e+00 3.47865906e+00 5.40992620e+00 7.55496273e+00
 7.56229209e+00 7.58431806e+00 8.04916250e+00 8.06590036e+00
 1.36632763e+01 1.73633302e+01 1.73747558e+01 1.74091026e+01
 1.96520440e+01 1.96756569e+01 3.49097952e+01 5.68501437e+01
 5.68736889e+01 9.00464124e+01 1.81961245e+02 1.81976561e+02
 2.37378136e+02 6.41139894e+02]
beta-B2u nocc = 1  HOMO = 0.0506976484691376  LUMO = 0.14254033862393
   mo_energy = [5.06976485e-02 1.42540339e-01 3.45286303e-01 5.88585666e-01
 5.92467309e-01 8.66966346e-01 1.48982542e+00 1.50068604e+00
 2.16874253e+00 3.08967593e+00 3.09657715e+00 3.11039149e+00
 3.47110121e+00 3.49133030e+00 5.39382461e+00 7.55679452e+00
 7.57146242e+00 7.60087831e+00 8.05334209e+00 8.08690153e+00
 1.36863349e+01 1.73661855e+01 1.73890542e+01 1.74349321e+01
 1.96579432e+01 1.97052367e+01 3.49501568e+01 5.68560291e+01
 5.69031331e+01 9.00835382e+01 1.81965074e+02 1.81995707e+02
 2.37402889e+02 6.41152408e+02]
beta-B3u nocc = 1  HOMO = 0.0506976484691155  LUMO = 0.142540338623901
   mo_energy = [5.06976485e-02 1.42540339e-01 3.45286303e-01 5.88585666e-01
 5.92467309e-01 8.66966346e-01 1.48982542e+00 1.50068604e+00
 2.16874253e+00 3.08967593e+00 3.09657715e+00 3.11039149e+00
 3.47110121e+00 3.49133030e+00 5.39382461e+00 7.55679452e+00
 7.57146242e+00 7.60087831e+00 8.05334209e+00 8.08690153e+00
 1.36863349e+01 1.73661855e+01 1.73890542e+01 1.74349321e+01
 1.96579432e+01 1.97052367e+01 3.49501568e+01 5.68560291e+01
 5.69031331e+01 9.00835382e+01 1.81965074e+02 1.81995707e+02
 2.37402889e+02 6.41152408e+02]
multiplicity <S^2> = 0.75503849  2S+1 = 2.0050322
E1 = -105.5003235389346  Ecoul = 30.734801301648098
cycle= 2 E= -74.7655222372865  delta_E= -0.0414  |g|= 0.297  |ddm|= 0.25
    CPU time for cycle= 2      2.07 sec, wall time      0.52 sec
diis-norm(errvec)=0.420408
diis-c [-0.0127431   0.42611258  0.57388742]
alpha HOMO (B3u) = -0.125618228726255  LUMO (B1u) = 0.140905361336654
alpha irrep_nelec = [2, 0, 0, 0, 0, 1, 1, 1]
beta  irrep_nelec = [2, 0, 0, 0, 0, 0, 1, 1]
alpha-Ag nocc = 2  HOMO = -0.888673726763447  LUMO = 0.186053473700192
   mo_energy = [-2.02136315e+01 -8.88673727e-01  1.86053474e-01  3.14203297e-01
  3.17586319e-01  4.35998438e-01  7.55020750e-01  7.69509446e-01
  1.14312934e+00  1.40021331e+00  1.40389429e+00  1.41506560e+00
  1.65838423e+00  1.69751172e+00  3.26936378e+00  3.42673799e+00
  3.43584852e+00  3.46355739e+00  3.66953775e+00  3.73233622e+00
  7.75951023e+00  7.77597653e+00  7.82579566e+00  8.64078238e+00
  8.71502095e+00  9.47797672e+00  1.95721127e+01  1.95940210e+01
  1.96600356e+01  2.16370989e+01  2.17084384e+01  2.63849646e+01
  5.54636439e+01  5.55193809e+01  6.88461587e+01  7.69043775e+01
  7.69213808e+01  7.69724469e+01  1.49139846e+02  1.49174296e+02
  1.73078555e+02  4.24478632e+02  4.24495084e+02  4.34234423e+02
  1.50264577e+03]
alpha-B1g nocc = 0
   mo_energy = [3.17586319e-01 7.69509446e-01 1.40389429e+00 1.41506560e+00
 1.69751172e+00 3.43584852e+00 3.46355739e+00 3.73233622e+00
 7.77597653e+00 7.82579566e+00 8.71502095e+00 1.95940210e+01
 1.96600356e+01 2.17084384e+01 5.55193809e+01 7.69213808e+01
 7.69724469e+01 1.49174296e+02 4.24495084e+02]
alpha-B2g nocc = 0
   mo_energy = [3.15045936e-01 7.58549095e-01 1.40113170e+00 1.40852454e+00
 1.66776954e+00 3.42901011e+00 3.44732181e+00 3.68474752e+00
 7.76362112e+00 7.79665169e+00 8.65907683e+00 1.95775854e+01
 1.96214731e+01 2.16548667e+01 5.54775783e+01 7.69086275e+01
 7.69426481e+01 1.49148464e+02 4.24482752e+02]
alpha-B3g nocc = 0
   mo_energy = [3.15045936e-01 7.58549095e-01 1.40113170e+00 1.40852454e+00
 1.66776954e+00 3.42901011e+00 3.44732181e+00 3.68474752e+00
 7.76362112e+00 7.79665169e+00 8.65907683e+00 1.95775854e+01
 1.96214731e+01 2.16548667e+01 5.54775783e+01 7.69086275e+01
 7.69426481e+01 1.49148464e+02 4.24482752e+02]
alpha-Au nocc = 0
   mo_energy = [  0.58648128   1.46696559   3.06191863   3.07513989   3.38422806
   7.46428562   7.49116838   7.86414441  17.16347446  17.20355658
  19.36454294  56.47969599 181.54512873]
alpha-B1u nocc = 1  HOMO = -0.206334298912427  LUMO = 0.140905361336654
   mo_energy = [-2.06334299e-01  1.40905361e-01  3.28612872e-01  5.83679876e-01
  5.86481277e-01  7.95409554e-01  1.45765393e+00  1.46696559e+00
  2.00235415e+00  3.05749897e+00  3.06191863e+00  3.07513989e+00
  3.36321550e+00  3.38422806e+00  5.12023570e+00  7.45532450e+00
  7.46428562e+00  7.49116838e+00  7.83122284e+00  7.86414441e+00
  1.33185164e+01  1.71501527e+01  1.71634745e+01  1.72035566e+01
  1.93277723e+01  1.93645429e+01  3.45215832e+01  5.64506945e+01
  5.64796960e+01  8.96281418e+01  1.81529354e+02  1.81545129e+02
  2.36940229e+02  6.40687492e+02]
alpha-B2u nocc = 1  HOMO = -0.125618228726267  LUMO = 0.142044083740627
   mo_energy = [-1.25618229e-01  1.42044084e-01  3.36068736e-01  5.84380637e-01
  5.90005100e-01  8.20663596e-01  1.45997953e+00  1.47871377e+00
  2.05023911e+00  3.05860471e+00  3.06743286e+00  3.08503812e+00
  3.36844835e+00  3.41087527e+00  5.18484854e+00  7.45756515e+00
  7.47548460e+00  7.51135851e+00  7.83942728e+00  7.90573566e+00
  1.33878111e+01  1.71534813e+01  1.71801539e+01  1.72337355e+01
  1.93369515e+01  1.94107192e+01  3.45819269e+01  5.64579424e+01
  5.65159855e+01  8.96707681e+01  1.81533297e+02  1.81564853e+02
  2.36964980e+02  6.40699084e+02]
alpha-B3u nocc = 1  HOMO = -0.125618228726255  LUMO = 0.142044083740682
   mo_energy = [-1.25618229e-01  1.42044084e-01  3.36068736e-01  5.84380637e-01
  5.90005100e-01  8.20663596e-01  1.45997953e+00  1.47871377e+00
  2.05023911e+00  3.05860471e+00  3.06743286e+00  3.08503812e+00
  3.36844835e+00  3.41087527e+00  5.18484854e+00  7.45756515e+00
  7.47548460e+00  7.51135851e+00  7.83942728e+00  7.90573566e+00
  1.33878111e+01  1.71534813e+01  1.71801539e+01  1.72337355e+01
  1.93369515e+01  1.94107192e+01  3.45819269e+01  5.64579424e+01
  5.65159855e+01  8.96707681e+01  1.81533297e+02  1.81564853e+02
  2.36964980e+02  6.40699084e+02]
beta-Ag nocc = 2  HOMO = -0.737810335870735  LUMO = 0.186313500807314
   mo_energy = [-2.01836494e+01 -7.37810336e-01  1.86313501e-01  3.14943611e-01
  3.17213284e-01  4.42984360e-01  7.68884326e-01  7.69772755e-01
  1.16516310e+00  1.40268923e+00  1.40571196e+00  1.41486044e+00
  1.70292920e+00  1.71481883e+00  3.30188044e+00  3.43821179e+00
  3.44469642e+00  3.46422066e+00  3.74352057e+00  3.75539952e+00
  7.78558231e+00  7.79628857e+00  7.82843864e+00  8.71582346e+00
  8.72677573e+00  9.50790660e+00  1.96070503e+01  1.96213862e+01
  1.96644810e+01  2.16853476e+01  2.17170417e+01  2.64040879e+01
  5.54879100e+01  5.55241673e+01  6.88558814e+01  7.69248529e+01
  7.69374674e+01  7.69753485e+01  1.49149376e+02  1.49176300e+02
  1.73082714e+02  4.24481443e+02  4.24495692e+02  4.34235903e+02
  1.50264615e+03]
beta-B1g nocc = 0
   mo_energy = [3.17213284e-01 7.69772755e-01 1.40571196e+00 1.41486044e+00
 1.70292920e+00 3.44469642e+00 3.46422066e+00 3.74352057e+00
 7.79628857e+00 7.82843864e+00 8.72677573e+00 1.96213862e+01
 1.96644810e+01 2.17170417e+01 5.55241673e+01 7.69374674e+01
 7.69753485e+01 1.49176300e+02 4.24495692e+02]
beta-B2g nocc = 0
   mo_energy = [3.15488949e-01 7.68916958e-01 1.40344362e+00 1.40950939e+00
 1.71123697e+00 3.43983076e+00 3.45282490e+00 3.75176486e+00
 7.78825805e+00 7.80968089e+00 8.71845389e+00 1.96106329e+01
 1.96393266e+01 2.16932327e+01 5.54969695e+01 7.69280059e+01
 7.69532443e+01 1.49156109e+02 4.24485010e+02]
beta-B3g nocc = 0
   mo_energy = [3.15488949e-01 7.68916958e-01 1.40344362e+00 1.40950939e+00
 1.71123697e+00 3.43983076e+00 3.45282490e+00 3.75176486e+00
 7.78825805e+00 7.80968089e+00 8.71845389e+00 1.96106329e+01
 1.96393266e+01 2.16932327e+01 5.54969695e+01 7.69280059e+01
 7.69532443e+01 1.49156109e+02 4.24485010e+02]
beta-Au nocc = 0
   mo_energy = [  0.5868316    1.47213503   3.0658917    3.07681942   3.4023268
   7.47608747   7.49676522   7.89400138  17.18358382  17.21357911
  19.39262508  56.49564112 181.55047021]
beta-B1u nocc = 0
   mo_energy = [1.40637214e-01 3.10004798e-01 4.96270764e-01 5.84548514e-01
 5.86831600e-01 9.02739627e-01 1.46671619e+00 1.47213503e+00
 2.10813110e+00 3.06225094e+00 3.06589170e+00 3.07681942e+00
 3.39323409e+00 3.40232680e+00 5.21064212e+00 7.46920952e+00
 7.47608747e+00 7.49676522e+00 7.87967283e+00 7.89400138e+00
 1.33809699e+01 1.71736094e+01 1.71835838e+01 1.72135791e+01
 1.93728141e+01 1.93926251e+01 3.45565930e+01 5.64761007e+01
 5.64956411e+01 8.96441154e+01 1.81537830e+02 1.81550470e+02
 2.36946150e+02 6.40689279e+02]
beta-B2u nocc = 1  HOMO = -0.0862148319047579  LUMO = 0.142085123398226
   mo_energy = [-8.62148319e-02  1.42085123e-01  3.37786324e-01  5.85116561e-01
  5.89714433e-01  8.28093685e-01  1.46806394e+00  1.47897203e+00
  2.06375227e+00  3.06316108e+00  3.07044373e+00  3.08502334e+00
  3.39550073e+00  3.41376840e+00  5.20031886e+00  7.47092835e+00
  7.48469503e+00  7.51231911e+00  7.88325006e+00  7.91198991e+00
  1.34008618e+01  1.71761019e+01  1.71960687e+01  1.72361468e+01
  1.93777622e+01  1.94174597e+01  3.45903423e+01  5.64809843e+01
  5.65200902e+01  8.96749558e+01  1.81540990e+02  1.81566276e+02
  2.36966619e+02  6.40699590e+02]
beta-B3u nocc = 1  HOMO = -0.0862148319047494  LUMO = 0.14208512339825
   mo_energy = [-8.62148319e-02  1.42085123e-01  3.37786324e-01  5.85116561e-01
  5.89714433e-01  8.28093685e-01  1.46806394e+00  1.47897203e+00
  2.06375227e+00  3.06316108e+00  3.07044373e+00  3.08502334e+00
  3.39550073e+00  3.41376840e+00  5.20031886e+00  7.47092835e+00
  7.48469503e+00  7.51231911e+00  7.88325006e+00  7.91198991e+00
  1.34008618e+01  1.71761019e+01  1.71960687e+01  1.72361468e+01
  1.93777622e+01  1.94174597e+01  3.45903423e+01  5.64809843e+01
  5.65200902e+01  8.96749558e+01  1.81540990e+02  1.81566276e+02
  2.36966619e+02  6.40699590e+02]
multiplicity <S^2> = 0.75495166  2S+1 = 2.0049455
E1 = -106.91591966845775  Ecoul = 32.11928991053593
cycle= 3 E= -74.7966297579218  delta_E= -0.0311  |g|= 0.0243  |ddm|= 0.119
    CPU time for cycle= 3      2.07 sec, wall time      0.52 sec
diis-norm(errvec)=0.0344093
diis-c [-7.49794846e-04 -1.02809296e-01 -1.21330410e-01  1.22413971e+00]
alpha HOMO (B3u) = -0.132914100056867  LUMO (B1u) = 0.140918048200596
alpha irrep_nelec = [2, 0, 0, 0, 0, 1, 1, 1]
beta  irrep_nelec = [2, 0, 0, 0, 0, 0, 1, 1]
alpha-Ag nocc = 2  HOMO = -0.896091451749116  LUMO = 0.186311992705163
   mo_energy = [-2.02171620e+01 -8.96091452e-01  1.86311993e-01  3.14393884e-01
  3.17892185e-01  4.36538868e-01  7.55283217e-01  7.69738439e-01
  1.14265302e+00  1.40041301e+00  1.40420274e+00  1.41575183e+00
  1.65653338e+00  1.69643397e+00  3.26570527e+00  3.42555162e+00
  3.43467300e+00  3.46252693e+00  3.66376788e+00  3.72798049e+00
  7.75522272e+00  7.77138668e+00  7.82043978e+00  8.63356628e+00
  8.70753546e+00  9.47201460e+00  1.95658975e+01  1.95870780e+01
  1.96510211e+01  2.16315182e+01  2.17009669e+01  2.63795617e+01
  5.54605094e+01  5.55140839e+01  6.88426216e+01  7.69012196e+01
  7.69174747e+01  7.69663364e+01  1.49138507e+02  1.49171393e+02
  1.73076632e+02  4.24478125e+02  4.24493756e+02  4.34233483e+02
  1.50264537e+03]
alpha-B1g nocc = 0
   mo_energy = [3.17892185e-01 7.69738439e-01 1.40420274e+00 1.41575183e+00
 1.69643397e+00 3.43467300e+00 3.46252693e+00 3.72798049e+00
 7.77138668e+00 7.82043978e+00 8.70753546e+00 1.95870780e+01
 1.96510211e+01 2.17009669e+01 5.55140839e+01 7.69174747e+01
 7.69663364e+01 1.49171393e+02 4.24493756e+02]
alpha-B2g nocc = 0
   mo_energy = [3.15255266e-01 7.58736563e-01 1.40135781e+00 1.40898077e+00
 1.66598134e+00 3.42782471e+00 3.44618582e+00 3.67921102e+00
 7.75925582e+00 7.79171683e+00 8.65175021e+00 1.95711866e+01
 1.96136464e+01 2.16487843e+01 5.54738840e+01 7.69052819e+01
 7.69378162e+01 1.49146726e+02 4.24482037e+02]
alpha-B3g nocc = 0
   mo_energy = [3.15255266e-01 7.58736563e-01 1.40135781e+00 1.40898077e+00
 1.66598134e+00 3.42782471e+00 3.44618582e+00 3.67921102e+00
 7.75925582e+00 7.79171683e+00 8.65175021e+00 1.95711866e+01
 1.96136464e+01 2.16487843e+01 5.54738840e+01 7.69052819e+01
 7.69378162e+01 1.49146726e+02 4.24482037e+02]
alpha-Au nocc = 0
   mo_energy = [  0.58681851   1.46699244   3.06163785   3.0750764    3.38175391
   7.46124392   7.4877538    7.85787211  17.15741082  17.19618209
  19.35724051  56.47501438 181.54318088]
alpha-B1u nocc = 1  HOMO = -0.223487003597092  LUMO = 0.140918048200596
   mo_energy = [-2.23487004e-01  1.40918048e-01  3.28477690e-01  5.83910122e-01
  5.86818508e-01  7.93242005e-01  1.45757533e+00  1.46699244e+00
  1.99711654e+00  3.05715588e+00  3.06163785e+00  3.07507640e+00
  3.36074194e+00  3.38175391e+00  5.11379724e+00  7.45242457e+00
  7.46124392e+00  7.48775380e+00  7.82535279e+00  7.85787211e+00
  1.33129771e+01  1.71445446e+01  1.71574108e+01  1.71961821e+01
  1.93215269e+01  1.93572405e+01  3.45181018e+01  5.64471874e+01
  5.64750144e+01  8.96265145e+01  1.81528144e+02  1.81543181e+02
  2.36939603e+02  6.40687238e+02]
alpha-B2u nocc = 1  HOMO = -0.13291410005688  LUMO = 0.142170390303002
   mo_energy = [-1.32914100e-01  1.42170390e-01  3.36982287e-01  5.84636771e-01
  5.90497183e-01  8.20959739e-01  1.45992277e+00  1.47896128e+00
  2.04743163e+00  3.05827671e+00  3.06723716e+00  3.08516675e+00
  3.36596762e+00  3.40852728e+00  5.17935445e+00  7.45462895e+00
  7.47227800e+00  7.50771593e+00  7.83345061e+00  7.89906179e+00
  1.33813309e+01  1.71477585e+01  1.71735339e+01  1.72254334e+01
  1.93304374e+01  1.94021645e+01  3.45765142e+01  5.64541392e+01
  5.65098717e+01  8.96673491e+01  1.81531902e+02  1.81561994e+02
  2.36963177e+02  6.40698237e+02]
alpha-B3u nocc = 1  HOMO = -0.132914100056867  LUMO = 0.142170390302982
   mo_energy = [-1.32914100e-01  1.42170390e-01  3.36982287e-01  5.84636771e-01
  5.90497183e-01  8.20959739e-01  1.45992277e+00  1.47896128e+00
  2.04743163e+00  3.05827671e+00  3.06723716e+00  3.08516675e+00
  3.36596762e+00  3.40852728e+00  5.17935445e+00  7.45462895e+00
  7.47227800e+00  7.50771593e+00  7.83345061e+00  7.89906179e+00
  1.33813309e+01  1.71477585e+01  1.71735339e+01  1.72254334e+01
  1.93304374e+01  1.94021645e+01  3.45765142e+01  5.64541392e+01
  5.65098717e+01  8.96673491e+01  1.81531902e+02  1.81561994e+02
  2.36963177e+02  6.40698237e+02]
beta-Ag nocc = 2  HOMO = -0.737601442279101  LUMO = 0.186461022781622
   mo_energy = [-2.01844256e+01 -7.37601442e-01  1.86461023e-01  3.14964996e-01
  3.17349703e-01  4.42871254e-01  7.68184444e-01  7.68385631e-01
  1.16521518e+00  1.40250906e+00  1.40561971e+00  1.41502052e+00
  1.69972977e+00  1.71345808e+00  3.30045019e+00  3.43666804e+00
  3.44301792e+00  3.46209538e+00  3.73951461e+00  3.75436384e+00
  7.78240328e+00  7.79236268e+00  7.82226777e+00  8.71406510e+00
  8.72114629e+00  9.50462868e+00  1.96035503e+01  1.96166070e+01
  1.96559119e+01  2.16834224e+01  2.17111989e+01  2.64005468e+01
  5.54866265e+01  5.55198157e+01  6.88533071e+01  7.69233330e+01
  7.69349935e+01  7.69700415e+01  1.49148759e+02  1.49173800e+02
  1.73081200e+02  4.24481147e+02  4.24494488e+02  4.34235108e+02
  1.50264580e+03]
beta-B1g nocc = 0
   mo_energy = [3.17349703e-01 7.68385631e-01 1.40561971e+00 1.41502052e+00
 1.69972977e+00 3.44301792e+00 3.46209538e+00 3.73951461e+00
 7.79236268e+00 7.82226777e+00 8.72114629e+00 1.96166070e+01
 1.96559119e+01 2.17111989e+01 5.55198157e+01 7.69349935e+01
 7.69700415e+01 1.49173800e+02 4.24494488e+02]
beta-B2g nocc = 0
   mo_energy = [3.15539163e-01 7.68035818e-01 1.40328553e+00 1.40952482e+00
 1.70937733e+00 3.43825363e+00 3.45097018e+00 3.74995476e+00
 7.78489230e+00 7.80482082e+00 8.71574551e+00 1.96068124e+01
 1.96329597e+01 2.16903171e+01 5.54949052e+01 7.69262471e+01
 7.69495848e+01 1.49155015e+02 4.24484485e+02]
beta-B3g nocc = 0
   mo_energy = [3.15539163e-01 7.68035818e-01 1.40328553e+00 1.40952482e+00
 1.70937733e+00 3.43825363e+00 3.45097018e+00 3.74995476e+00
 7.78489230e+00 7.80482082e+00 8.71574551e+00 1.96068124e+01
 1.96329597e+01 2.16903171e+01 5.54949052e+01 7.69262471e+01
 7.69495848e+01 1.49155015e+02 4.24484485e+02]
beta-Au nocc = 0
   mo_energy = [  0.58694936   1.47132329   3.0651955    3.07619585   3.39948442
   7.47308272   7.49288442   7.88944805  17.17880365  17.20663753
  19.38784119  56.49250807 181.54904317]
beta-B1u nocc = 0
   mo_energy = [1.40644398e-01 3.09788902e-01 4.96985473e-01 5.84565254e-01
 5.86949355e-01 9.03935461e-01 1.46595346e+00 1.47132329e+00
 2.10796677e+00 3.06153201e+00 3.06519550e+00 3.07619585e+00
 3.39112006e+00 3.39948442e+00 5.20982281e+00 7.46650330e+00
 7.47308272e+00 7.49288442e+00 7.87684975e+00 7.88944805e+00
 1.33799614e+01 1.71695596e+01 1.71788036e+01 1.72066375e+01
 1.93701352e+01 1.93878412e+01 3.45557504e+01 5.64745817e+01
 5.64925081e+01 8.96436643e+01 1.81537263e+02 1.81549043e+02
 2.36945948e+02 6.40689151e+02]
beta-B2u nocc = 1  HOMO = -0.0914748062450125  LUMO = 0.142341139799183
   mo_energy = [-9.14748062e-02  1.42341140e-01  3.39451474e-01  5.85157469e-01
  5.89955008e-01  8.29740348e-01  1.46729045e+00  1.47805706e+00
  2.06243253e+00  3.06244776e+00  3.06977696e+00  3.08445892e+00
  3.39320985e+00  3.40993548e+00  5.19651202e+00  7.46814719e+00
  7.48132171e+00  7.50780032e+00  7.87999712e+00  7.90523606e+00
  1.33960722e+01  1.71718690e+01  1.71903825e+01  1.72276137e+01
  1.93745558e+01  1.94100637e+01  3.45861323e+01  5.64790601e+01
  5.65149639e+01  8.96721532e+01  1.81540207e+02  1.81563783e+02
  2.36965056e+02  6.40698816e+02]
beta-B3u nocc = 1  HOMO = -0.0914748062450255  LUMO = 0.142341139799198
   mo_energy = [-9.14748062e-02  1.42341140e-01  3.39451474e-01  5.85157469e-01
  5.89955008e-01  8.29740348e-01  1.46729045e+00  1.47805706e+00
  2.06243253e+00  3.06244776e+00  3.06977696e+00  3.08445892e+00
  3.39320985e+00  3.40993548e+00  5.19651202e+00  7.46814719e+00
  7.48132171e+00  7.50780032e+00  7.87999712e+00  7.90523606e+00
  1.33960722e+01  1.71718690e+01  1.71903825e+01  1.72276137e+01
  1.93745558e+01  1.94100637e+01  3.45861323e+01  5.64790601e+01
  5.65149639e+01  8.96721532e+01  1.81540207e+02  1.81563783e+02
  2.36965056e+02  6.40698816e+02]
multiplicity <S^2> = 0.75805752  2S+1 = 2.0080414
E1 = -106.87369689729104  Ecoul = 32.07639778589564
cycle= 4 E= -74.7972991113954  delta_E= -0.000669  |g|= 0.011  |ddm|= 0.0217
    CPU time for cycle= 4      2.08 sec, wall time      0.52 sec
diis-norm(errvec)=0.015516
diis-c [-1.63809602e-04  4.04265929e-02  3.84156468e-02 -5.95298074e-01
  1.51645583e+00]
alpha HOMO (B2u) = -0.136065511568857  LUMO (B1u) = 0.14083884040857
alpha irrep_nelec = [2, 0, 0, 0, 0, 1, 1, 1]
beta  irrep_nelec = [2, 0, 0, 0, 0, 0, 1, 1]
alpha-Ag nocc = 2  HOMO = -0.901095386437994  LUMO = 0.186270571235158
   mo_energy = [-2.02196464e+01 -9.01095386e-01  1.86270571e-01  3.14273200e-01
  3.17925433e-01  4.36235535e-01  7.55043159e-01  7.69588328e-01
  1.14123073e+00  1.39964975e+00  1.40355243e+00  1.41549461e+00
  1.65509181e+00  1.69530550e+00  3.26290086e+00  3.42385088e+00
  3.43304055e+00  3.46120923e+00  3.66038212e+00  3.72499796e+00
  7.75286573e+00  7.76892087e+00  7.81779129e+00  8.63032875e+00
  8.70394029e+00  9.46909864e+00  1.95639550e+01  1.95847400e+01
  1.96476255e+01  2.16296488e+01  2.16979376e+01  2.63773867e+01
  5.54596411e+01  5.55118388e+01  6.88410492e+01  7.69006430e+01
  7.69164127e+01  7.69638626e+01  1.49137779e+02  1.49169628e+02
  1.73075210e+02  4.24476877e+02  4.24491963e+02  4.34231822e+02
  1.50264326e+03]
alpha-B1g nocc = 0
[...]
  3.18200684e-01  4.36642596e-01  7.55296408e-01  7.70358542e-01
  1.13988347e+00  1.39924065e+00  1.40327875e+00  1.41563990e+00
  1.65403125e+00  1.69411800e+00  3.25931498e+00  3.42277089e+00
  3.43204400e+00  3.46045254e+00  3.65678251e+00  3.72021481e+00
  7.75075009e+00  7.76663591e+00  7.81494981e+00  8.62615010e+00
  8.69792695e+00  9.46475498e+00  1.95610589e+01  1.95813326e+01
  1.96426329e+01  2.16262633e+01  2.16925374e+01  2.63735082e+01
  5.54570525e+01  5.55075413e+01  6.88378347e+01  7.68981465e+01
  7.69133838e+01  7.69592198e+01  1.49135541e+02  1.49166278e+02
  1.73072472e+02  4.24474718e+02  4.24489259e+02  4.34229382e+02
  1.50264104e+03]
alpha-B1g nocc = 0
   mo_energy = [3.18200684e-01 7.70358542e-01 1.40327875e+00 1.41563990e+00
 1.69411800e+00 3.43204400e+00 3.46045254e+00 3.72021481e+00
 7.76663591e+00 7.81494981e+00 8.69792695e+00 1.95813326e+01
 1.96426329e+01 2.16925374e+01 5.55075413e+01 7.69133838e+01
 7.69592198e+01 1.49166278e+02 4.24489259e+02]
alpha-B2g nocc = 0
   mo_energy = [3.15234662e-01 7.58844820e-01 1.40024654e+00 1.40838252e+00
 1.66347341e+00 3.42508052e+00 3.44376838e+00 3.67201638e+00
 7.75471222e+00 7.78664021e+00 8.64376388e+00 1.95661201e+01
 1.96067855e+01 2.16427130e+01 5.54696402e+01 7.69019539e+01
 7.69324594e+01 1.49143216e+02 4.24478355e+02]
alpha-B3g nocc = 0
   mo_energy = [3.15234662e-01 7.58844820e-01 1.40024654e+00 1.40838252e+00
 1.66347341e+00 3.42508052e+00 3.44376838e+00 3.67201638e+00
 7.75471222e+00 7.78664021e+00 8.64376388e+00 1.95661201e+01
 1.96067855e+01 2.16427130e+01 5.54696402e+01 7.69019539e+01
 7.69324594e+01 1.49143216e+02 4.24478355e+02]
alpha-Au nocc = 0
   mo_energy = [  0.58670622   1.46608923   3.05949123   3.07346622   3.37831118
   7.45728906   7.48371879   7.85133172  17.15248505  17.18998819
  19.35028464  56.46987036 181.53928192]
alpha-B1u nocc = 1  HOMO = -0.239178885880005  LUMO = 0.140783784269049
   mo_energy = [-2.39178886e-01  1.40783784e-01  3.27315264e-01  5.83504398e-01
  5.86706220e-01  7.89140248e-01  1.45630694e+00  1.46608923e+00
  1.99040310e+00  3.05484178e+00  3.05949123e+00  3.07346622e+00
  3.35732223e+00  3.37831118e+00  5.10685430e+00  7.44851528e+00
  7.45728906e+00  7.48371879e+00  7.81966277e+00  7.85133172e+00
  1.33076093e+01  1.71400564e+01  1.71524850e+01  1.71899882e+01
  1.93161729e+01  1.93502846e+01  3.45145035e+01  5.64436923e+01
  5.64698704e+01  8.96236963e+01  1.81525261e+02  1.81539282e+02
  2.36936599e+02  6.40683614e+02]
alpha-B2u nocc = 1  HOMO = -0.146410186414182  LUMO = 0.142157427285745
   mo_energy = [-1.46410186e-01  1.42157427e-01  3.36111676e-01  5.84303052e-01
  5.90776375e-01  8.17450204e-01  1.45874093e+00  1.47859347e+00
  2.04107405e+00  3.05600394e+00  3.06530790e+00  3.08399206e+00
  3.36253699e+00  3.40514706e+00  5.17143815e+00  7.45070736e+00
  7.46827961e+00  7.50367476e+00  7.82754430e+00  7.89152231e+00
  1.33735189e+01  1.71431602e+01  1.71680715e+01  1.72183339e+01
  1.93246799e+01  1.93932553e+01  3.45699402e+01  5.64502302e+01
  5.65026930e+01  8.96620488e+01  1.81528764e+02  1.81556833e+02
  2.36958600e+02  6.40693845e+02]
alpha-B3u nocc = 1  HOMO = -0.146410186414162  LUMO = 0.142157427285728
   mo_energy = [-1.46410186e-01  1.42157427e-01  3.36111676e-01  5.84303052e-01
  5.90776375e-01  8.17450204e-01  1.45874093e+00  1.47859347e+00
  2.04107405e+00  3.05600394e+00  3.06530790e+00  3.08399206e+00
  3.36253699e+00  3.40514706e+00  5.17143815e+00  7.45070736e+00
  7.46827961e+00  7.50367476e+00  7.82754430e+00  7.89152231e+00
  1.33735189e+01  1.71431602e+01  1.71680715e+01  1.72183339e+01
  1.93246799e+01  1.93932553e+01  3.45699402e+01  5.64502302e+01
  5.65026930e+01  8.96620488e+01  1.81528764e+02  1.81556833e+02
  2.36958600e+02  6.40693845e+02]
beta-Ag nocc = 2  HOMO = -0.729502417127928  LUMO = 0.185703388250147
   mo_energy = [-2.01835252e+01 -7.29502417e-01  1.85703388e-01  3.14229010e-01
  3.16610794e-01  4.40450349e-01  7.65181389e-01  7.65306503e-01
  1.16354306e+00  1.40027134e+00  1.40355750e+00  1.41348061e+00
  1.69682163e+00  1.70993015e+00  3.29989892e+00  3.43276557e+00
  3.43925193e+00  3.45871583e+00  3.73969782e+00  3.75333967e+00
  7.77910936e+00  7.78889893e+00  7.81828958e+00  8.71452801e+00
  8.72155503e+00  9.50414988e+00  1.96027345e+01  1.96151275e+01
  1.96524645e+01  2.16837341e+01  2.17098176e+01  2.63993496e+01
  5.54860949e+01  5.55169709e+01  6.88512861e+01  7.69230144e+01
  7.69338328e+01  7.69663716e+01  1.49147113e+02  1.49170317e+02
  1.73078486e+02  4.24478365e+02  4.24490709e+02  4.34231782e+02
  1.50264187e+03]
beta-B1g nocc = 0
   mo_energy = [3.16610794e-01 7.65181389e-01 1.40355750e+00 1.41348061e+00
 1.69682163e+00 3.43925193e+00 3.45871583e+00 3.73969782e+00
 7.78889893e+00 7.81828958e+00 8.72155503e+00 1.96151275e+01
 1.96524645e+01 2.17098176e+01 5.55169709e+01 7.69338328e+01
 7.69663716e+01 1.49170317e+02 4.24490709e+02]
beta-B2g nocc = 0
   mo_energy = [3.14807793e-01 7.65130084e-01 1.40109167e+00 1.40768169e+00
 1.70616050e+00 3.43438547e+00 3.44737110e+00 3.74938230e+00
 7.78155591e+00 7.80114432e+00 8.71623164e+00 1.96058302e+01
 1.96306561e+01 2.16902018e+01 5.54937867e+01 7.69257177e+01
 7.69473754e+01 1.49152904e+02 4.24481451e+02]
beta-B3g nocc = 0
   mo_energy = [3.14807793e-01 7.65130084e-01 1.40109167e+00 1.40768169e+00
 1.70616050e+00 3.43438547e+00 3.44737110e+00 3.74938230e+00
 7.78155591e+00 7.80114432e+00 8.71623164e+00 1.96058302e+01
 1.96306561e+01 2.16902018e+01 5.54937867e+01 7.69257177e+01
 7.69473754e+01 1.49152904e+02 4.24481451e+02]
beta-Au nocc = 0
   mo_energy = [  0.58599657   1.4683961    3.06196425   3.07338138   3.39587532
   7.46897016   7.48872147   7.88749783  17.17605984  17.20286877
  19.38696658  56.49100771 181.54643631]
beta-B1u nocc = 0
   mo_energy = [1.40482108e-01 3.08299697e-01 4.95701813e-01 5.83466238e-01
 5.85996566e-01 9.03495244e-01 1.46281688e+00 1.46839610e+00
 2.10648410e+00 3.05816298e+00 3.06196425e+00 3.07338138e+00
 3.38739803e+00 3.39587532e+00 5.20875349e+00 7.46241170e+00
 7.46897016e+00 7.48872147e+00 7.87524553e+00 7.88749783e+00
 1.33797386e+01 1.71671636e+01 1.71760598e+01 1.72028688e+01
 1.93702635e+01 1.93869666e+01 3.45556146e+01 5.64743538e+01
 5.64910077e+01 8.96427723e+01 1.81535540e+02 1.81546436e+02
 2.36943945e+02 6.40686077e+02]
beta-B2u nocc = 1  HOMO = -0.0798542993573141  LUMO = 0.142423746840916
   mo_energy = [-7.98542994e-02  1.42423747e-01  3.40020286e-01  5.84093947e-01
  5.89182474e-01  8.31036680e-01  1.46420923e+00  1.47534458e+00
  2.06373179e+00  3.05911312e+00  3.06671873e+00  3.08196069e+00
  3.38952118e+00  3.40638995e+00  5.19689543e+00  7.46405015e+00
  7.47718589e+00  7.50361162e+00  7.87830889e+00  7.90281176e+00
  1.33951740e+01  1.71693858e+01  1.71872083e+01  1.72230943e+01
  1.93744329e+01  1.94079419e+01  3.45840385e+01  5.64785131e+01
  5.65118875e+01  8.96692500e+01  1.81538263e+02  1.81560077e+02
  2.36961656e+02  6.40695028e+02]
beta-B3u nocc = 1  HOMO = -0.0798542993572775  LUMO = 0.142423746840991
   mo_energy = [-7.98542994e-02  1.42423747e-01  3.40020286e-01  5.84093947e-01
  5.89182474e-01  8.31036680e-01  1.46420923e+00  1.47534458e+00
  2.06373179e+00  3.05911312e+00  3.06671873e+00  3.08196069e+00
  3.38952118e+00  3.40638995e+00  5.19689543e+00  7.46405015e+00
  7.47718589e+00  7.50361162e+00  7.87830889e+00  7.90281176e+00
  1.33951740e+01  1.71693858e+01  1.71872083e+01  1.72230943e+01
  1.93744329e+01  1.94079419e+01  3.45840385e+01  5.64785131e+01
  5.65118875e+01  8.96692500e+01  1.81538263e+02  1.81560077e+02
  2.36961656e+02  6.40695028e+02]
multiplicity <S^2> = 0.77315652  2S+1 = 2.023024
E1 = -106.85574678380573  Ecoul = 32.05800073381615
cycle= 83 E= -74.7977460499896  delta_E= -5.68e-14  |g|= 3.33e-12  |ddm|= 8.11e-13
    CPU time for cycle= 83      2.14 sec, wall time      0.54 sec
alpha HOMO (B3u) = -0.146410186414854  LUMO (B1u) = 0.140783784269036
alpha irrep_nelec = [2, 0, 0, 0, 0, 1, 1, 1]
beta  irrep_nelec = [2, 0, 0, 0, 0, 0, 1, 1]
alpha-Ag nocc = 2  HOMO = -0.910391123539203  LUMO = 0.186445281683998
   mo_energy = [-2.02246188e+01 -9.10391124e-01  1.86445282e-01  3.14276590e-01
  3.18200684e-01  4.36642596e-01  7.55296408e-01  7.70358542e-01
  1.13988347e+00  1.39924065e+00  1.40327875e+00  1.41563990e+00
  1.65403125e+00  1.69411800e+00  3.25931498e+00  3.42277089e+00
  3.43204400e+00  3.46045254e+00  3.65678251e+00  3.72021481e+00
  7.75075009e+00  7.76663591e+00  7.81494981e+00  8.62615010e+00
  8.69792695e+00  9.46475498e+00  1.95610589e+01  1.95813326e+01
  1.96426329e+01  2.16262633e+01  2.16925374e+01  2.63735082e+01
  5.54570525e+01  5.55075413e+01  6.88378347e+01  7.68981465e+01
  7.69133838e+01  7.69592198e+01  1.49135541e+02  1.49166278e+02
  1.73072472e+02  4.24474718e+02  4.24489259e+02  4.34229382e+02
  1.50264104e+03]
alpha-B1g nocc = 0
   mo_energy = [3.18200684e-01 7.70358542e-01 1.40327875e+00 1.41563990e+00
 1.69411800e+00 3.43204400e+00 3.46045254e+00 3.72021481e+00
 7.76663591e+00 7.81494981e+00 8.69792695e+00 1.95813326e+01
 1.96426329e+01 2.16925374e+01 5.55075413e+01 7.69133838e+01
 7.69592198e+01 1.49166278e+02 4.24489259e+02]
alpha-B2g nocc = 0
   mo_energy = [3.15234662e-01 7.58844820e-01 1.40024654e+00 1.40838252e+00
 1.66347341e+00 3.42508052e+00 3.44376838e+00 3.67201638e+00
 7.75471222e+00 7.78664021e+00 8.64376388e+00 1.95661201e+01
 1.96067855e+01 2.16427130e+01 5.54696402e+01 7.69019539e+01
 7.69324594e+01 1.49143216e+02 4.24478355e+02]
alpha-B3g nocc = 0
   mo_energy = [3.15234662e-01 7.58844820e-01 1.40024654e+00 1.40838252e+00
 1.66347341e+00 3.42508052e+00 3.44376838e+00 3.67201638e+00
 7.75471222e+00 7.78664021e+00 8.64376388e+00 1.95661201e+01
 1.96067855e+01 2.16427130e+01 5.54696402e+01 7.69019539e+01
 7.69324594e+01 1.49143216e+02 4.24478355e+02]
alpha-Au nocc = 0
   mo_energy = [  0.58670622   1.46608923   3.05949123   3.07346622   3.37831118
   7.45728906   7.48371879   7.85133172  17.15248505  17.18998819
  19.35028464  56.46987036 181.53928192]
alpha-B1u nocc = 1  HOMO = -0.239178885880413  LUMO = 0.140783784269036
   mo_energy = [-2.39178886e-01  1.40783784e-01  3.27315264e-01  5.83504398e-01
  5.86706220e-01  7.89140248e-01  1.45630694e+00  1.46608923e+00
  1.99040310e+00  3.05484178e+00  3.05949123e+00  3.07346622e+00
  3.35732223e+00  3.37831118e+00  5.10685430e+00  7.44851528e+00
  7.45728906e+00  7.48371879e+00  7.81966277e+00  7.85133172e+00
  1.33076093e+01  1.71400564e+01  1.71524850e+01  1.71899882e+01
  1.93161729e+01  1.93502846e+01  3.45145035e+01  5.64436923e+01
  5.64698704e+01  8.96236963e+01  1.81525261e+02  1.81539282e+02
  2.36936599e+02  6.40683614e+02]
alpha-B2u nocc = 1  HOMO = -0.146410186414864  LUMO = 0.142157427285736
   mo_energy = [-1.46410186e-01  1.42157427e-01  3.36111676e-01  5.84303052e-01
  5.90776375e-01  8.17450204e-01  1.45874093e+00  1.47859347e+00
  2.04107405e+00  3.05600394e+00  3.06530790e+00  3.08399206e+00
  3.36253699e+00  3.40514706e+00  5.17143815e+00  7.45070736e+00
  7.46827961e+00  7.50367476e+00  7.82754430e+00  7.89152231e+00
  1.33735189e+01  1.71431602e+01  1.71680715e+01  1.72183339e+01
  1.93246799e+01  1.93932553e+01  3.45699402e+01  5.64502302e+01
  5.65026930e+01  8.96620488e+01  1.81528764e+02  1.81556833e+02
  2.36958600e+02  6.40693845e+02]
alpha-B3u nocc = 1  HOMO = -0.146410186414854  LUMO = 0.142157427285714
   mo_energy = [-1.46410186e-01  1.42157427e-01  3.36111676e-01  5.84303052e-01
  5.90776375e-01  8.17450204e-01  1.45874093e+00  1.47859347e+00
  2.04107405e+00  3.05600394e+00  3.06530790e+00  3.08399206e+00
  3.36253699e+00  3.40514706e+00  5.17143815e+00  7.45070736e+00
  7.46827961e+00  7.50367476e+00  7.82754430e+00  7.89152231e+00
  1.33735189e+01  1.71431602e+01  1.71680715e+01  1.72183339e+01
  1.93246799e+01  1.93932553e+01  3.45699402e+01  5.64502302e+01
  5.65026930e+01  8.96620488e+01  1.81528764e+02  1.81556833e+02
  2.36958600e+02  6.40693845e+02]
beta-Ag nocc = 2  HOMO = -0.729502417127651  LUMO = 0.185703388250112
   mo_energy = [-2.01835252e+01 -7.29502417e-01  1.85703388e-01  3.14229010e-01
  3.16610794e-01  4.40450349e-01  7.65181389e-01  7.65306503e-01
  1.16354306e+00  1.40027134e+00  1.40355750e+00  1.41348061e+00
  1.69682163e+00  1.70993015e+00  3.29989892e+00  3.43276557e+00
  3.43925193e+00  3.45871583e+00  3.73969782e+00  3.75333967e+00
  7.77910936e+00  7.78889893e+00  7.81828958e+00  8.71452801e+00
  8.72155503e+00  9.50414988e+00  1.96027345e+01  1.96151275e+01
  1.96524645e+01  2.16837341e+01  2.17098176e+01  2.63993496e+01
  5.54860949e+01  5.55169709e+01  6.88512861e+01  7.69230144e+01
  7.69338328e+01  7.69663716e+01  1.49147113e+02  1.49170317e+02
  1.73078486e+02  4.24478365e+02  4.24490709e+02  4.34231782e+02
  1.50264187e+03]
beta-B1g nocc = 0
   mo_energy = [3.16610794e-01 7.65181389e-01 1.40355750e+00 1.41348061e+00
 1.69682163e+00 3.43925193e+00 3.45871583e+00 3.73969782e+00
 7.78889893e+00 7.81828958e+00 8.72155503e+00 1.96151275e+01
 1.96524645e+01 2.17098176e+01 5.55169709e+01 7.69338328e+01
 7.69663716e+01 1.49170317e+02 4.24490709e+02]
beta-B2g nocc = 0
   mo_energy = [3.14807793e-01 7.65130084e-01 1.40109167e+00 1.40768169e+00
 1.70616050e+00 3.43438547e+00 3.44737110e+00 3.74938230e+00
 7.78155591e+00 7.80114432e+00 8.71623164e+00 1.96058302e+01
 1.96306561e+01 2.16902018e+01 5.54937867e+01 7.69257177e+01
 7.69473754e+01 1.49152904e+02 4.24481451e+02]
beta-B3g nocc = 0
   mo_energy = [3.14807793e-01 7.65130084e-01 1.40109167e+00 1.40768169e+00
 1.70616050e+00 3.43438547e+00 3.44737110e+00 3.74938230e+00
 7.78155591e+00 7.80114432e+00 8.71623164e+00 1.96058302e+01
 1.96306561e+01 2.16902018e+01 5.54937867e+01 7.69257177e+01
 7.69473754e+01 1.49152904e+02 4.24481451e+02]
beta-Au nocc = 0
   mo_energy = [  0.58599657   1.4683961    3.06196425   3.07338138   3.39587532
   7.46897016   7.48872147   7.88749783  17.17605984  17.20286877
  19.38696658  56.49100771 181.54643631]
beta-B1u nocc = 0
   mo_energy = [1.40482108e-01 3.08299697e-01 4.95701813e-01 5.83466238e-01
 5.85996566e-01 9.03495244e-01 1.46281688e+00 1.46839610e+00
 2.10648410e+00 3.05816298e+00 3.06196425e+00 3.07338138e+00
 3.38739803e+00 3.39587532e+00 5.20875349e+00 7.46241170e+00
 7.46897016e+00 7.48872147e+00 7.87524553e+00 7.88749783e+00
 1.33797386e+01 1.71671636e+01 1.71760598e+01 1.72028688e+01
 1.93702635e+01 1.93869666e+01 3.45556146e+01 5.64743538e+01
 5.64910077e+01 8.96427723e+01 1.81535540e+02 1.81546436e+02
 2.36943945e+02 6.40686077e+02]
beta-B2u nocc = 1  HOMO = -0.0798542993567815  LUMO = 0.142423746840974
   mo_energy = [-7.98542994e-02  1.42423747e-01  3.40020286e-01  5.84093947e-01
  5.89182474e-01  8.31036680e-01  1.46420923e+00  1.47534458e+00
  2.06373179e+00  3.05911312e+00  3.06671873e+00  3.08196069e+00
  3.38952118e+00  3.40638995e+00  5.19689543e+00  7.46405015e+00
  7.47718589e+00  7.50361162e+00  7.87830889e+00  7.90281176e+00
  1.33951740e+01  1.71693858e+01  1.71872083e+01  1.72230943e+01
  1.93744329e+01  1.94079419e+01  3.45840385e+01  5.64785131e+01
  5.65118875e+01  8.96692500e+01  1.81538263e+02  1.81560077e+02
  2.36961656e+02  6.40695028e+02]
beta-B3u nocc = 1  HOMO = -0.0798542993567437  LUMO = 0.14242374684099
   mo_energy = [-7.98542994e-02  1.42423747e-01  3.40020286e-01  5.84093947e-01
  5.89182474e-01  8.31036680e-01  1.46420923e+00  1.47534458e+00
  2.06373179e+00  3.05911312e+00  3.06671873e+00  3.08196069e+00
  3.38952118e+00  3.40638995e+00  5.19689543e+00  7.46405015e+00
  7.47718589e+00  7.50361162e+00  7.87830889e+00  7.90281176e+00
  1.33951740e+01  1.71693858e+01  1.71872083e+01  1.72230943e+01
  1.93744329e+01  1.94079419e+01  3.45840385e+01  5.64785131e+01
  5.65118875e+01  8.96692500e+01  1.81538263e+02  1.81560077e+02
  2.36961656e+02  6.40695028e+02]
multiplicity <S^2> = 0.77315652  2S+1 = 2.023024
E1 = -106.85574678380422  Ecoul = 32.05800073381474
Extra cycle  E= -74.7977460499895  delta_E= 8.53e-14  |g|= 6.16e-12  |ddm|= 8.11e-13
    CPU time for scf_cycle    218.35 sec, wall time     55.36 sec
    CPU time for SCF    218.37 sec, wall time     55.39 sec
converged SCF energy = -74.7977460499895  <S^2> = 0.77315652  2S+1 = 2.023024
irreps of each MO ['Ag' 'Ag' 'B1u' 'B2u' 'B3u' 'B1u' 'B2u' 'B3u' 'Ag' 'Ag' 'B2g' 'B3g' 'Ag'
 'B1g' 'B1u' 'B2u' 'B3u' 'Ag' 'B1u' 'B2u' 'B3u' 'Au' 'B1u' 'B2u' 'B3u'
 'Ag' 'B2g' 'B3g' 'Ag' 'B1g' 'B1u' 'B2u' 'B3u' 'Ag' 'Ag' 'B2g' 'B3g' 'Ag'
 'B1g' 'B2g' 'B3g' 'Ag' 'B1g' 'B1u' 'B2u' 'B3u' 'Au' 'B1u' 'B2u' 'B3u'
 'Ag' 'B2g' 'B3g' 'Ag' 'B1g' 'B1u' 'B2u' 'B3u' 'B1u' 'B2u' 'B3u' 'Au'
 'B1u' 'B2u' 'B3u' 'Au' 'B1u' 'B2u' 'B3u' 'Ag' 'B1u' 'B2u' 'B3u' 'Au'
 'B1u' 'B2u' 'B3u' 'Ag' 'B2g' 'B3g' 'Ag' 'B1g' 'B2g' 'B3g' 'Ag' 'B1g' 'Ag'
 'B2g' 'B3g' 'Ag' 'B1g' 'B1u' 'B2u' 'B3u' 'B1u' 'B2u' 'B3u' 'Au' 'B1u'
 'B2u' 'B3u' 'Au' 'B1u' 'B2u' 'B3u' 'Ag' 'B2g' 'B3g' 'Ag' 'B1g' 'B2g'
 'B3g' 'Ag' 'B1g' 'B1u' 'B2u' 'B3u' 'Au' 'B1u' 'B2u' 'B3u' 'Ag' 'B2g'
 'B3g' 'Ag' 'B1g' 'Ag' 'B1u' 'B2u' 'B3u' 'B1u' 'B2u' 'B3u' 'Au' 'B1u'
 'B2u' 'B3u' 'Au' 'B1u' 'B2u' 'B3u' 'B1u' 'B2u' 'B3u' 'Au' 'B1u' 'B2u'
 'B3u' 'Ag' 'B2g' 'B3g' 'Ag' 'B1g' 'B2g' 'B3g' 'Ag' 'B1g' 'Ag' 'B2g' 'B3g'
 'Ag' 'B1g' 'Ag' 'B1u' 'B2u' 'B3u' 'Ag' 'B2g' 'B3g' 'Ag' 'B1g' 'B1u' 'B2u'
 'B3u' 'Au' 'B1u' 'B2u' 'B3u' 'Ag' 'Ag' 'B2g' 'B3g' 'Ag' 'B1g' 'B2g' 'B3g'
 'Ag' 'B1g' 'B1u' 'B2u' 'B3u' 'Ag' 'B2g' 'B3g' 'Ag' 'B1g' 'Ag' 'B1u' 'B2u'
 'B3u' 'Au' 'B1u' 'B2u' 'B3u' 'B1u' 'B2u' 'B3u' 'Ag' 'B2g' 'B3g' 'Ag'
 'B1g' 'Ag' 'B1u' 'B2u' 'B3u' 'Ag']
irreps of each MO ['Ag' 'Ag' 'B2u' 'B3u' 'B1u' 'B2u' 'B3u' 'Ag' 'B1u' 'Ag' 'B2g' 'B3g' 'Ag'
 'B1g' 'B2u' 'B3u' 'Ag' 'B1u' 'B1u' 'B2u' 'B3u' 'Au' 'B1u' 'B2u' 'B3u'
 'B2g' 'B3g' 'Ag' 'B1g' 'Ag' 'B2u' 'B3u' 'B1u' 'Ag' 'Ag' 'B2g' 'B3g' 'Ag'
 'B1g' 'B2g' 'B3g' 'Ag' 'B1g' 'B1u' 'B2u' 'B3u' 'Au' 'B1u' 'B2u' 'B3u'
 'Ag' 'B1g' 'B2g' 'B3g' 'Ag' 'B2u' 'B3u' 'B1u' 'B1u' 'B2u' 'B3u' 'Au'
 'B1u' 'B2u' 'B3u' 'Au' 'B1u' 'B2u' 'B3u' 'Ag' 'B1u' 'B2u' 'B3u' 'Au'
 'B1u' 'B2u' 'B3u' 'Ag' 'B2g' 'B3g' 'Ag' 'B1g' 'B2g' 'B3g' 'Ag' 'B1g' 'Ag'
 'B1g' 'B2g' 'B3g' 'Ag' 'B2u' 'B3u' 'B1u' 'B1u' 'B2u' 'B3u' 'Au' 'B1u'
 'B2u' 'B3u' 'Au' 'B1u' 'B2u' 'B3u' 'Ag' 'B2g' 'B3g' 'Ag' 'B1g' 'B2g'
 'B3g' 'Ag' 'B1g' 'B1u' 'B2u' 'B3u' 'Au' 'B1u' 'B2u' 'B3u' 'Ag' 'B2g'
 'B3g' 'Ag' 'B1g' 'Ag' 'B1u' 'B2u' 'B3u' 'B1u' 'B2u' 'B3u' 'Au' 'B1u'
 'B2u' 'B3u' 'Au' 'B1u' 'B2u' 'B3u' 'B1u' 'B2u' 'B3u' 'Au' 'B1u' 'B2u'
 'B3u' 'Ag' 'B2g' 'B3g' 'Ag' 'B1g' 'B2g' 'B3g' 'Ag' 'B1g' 'Ag' 'B2g' 'B3g'
 'Ag' 'B1g' 'Ag' 'B1u' 'B2u' 'B3u' 'Ag' 'B2g' 'B3g' 'Ag' 'B1g' 'B1u' 'B2u'
 'B3u' 'Au' 'B1u' 'B2u' 'B3u' 'Ag' 'Ag' 'B2g' 'B3g' 'Ag' 'B1g' 'B2g' 'B3g'
 'Ag' 'B1g' 'B1u' 'B2u' 'B3u' 'Ag' 'B2g' 'B3g' 'Ag' 'B1g' 'Ag' 'B1u' 'B2u'
 'B3u' 'Au' 'B1u' 'B2u' 'B3u' 'B1u' 'B2u' 'B3u' 'Ag' 'B2g' 'B3g' 'Ag'
 'B1g' 'Ag' 'B1u' 'B2u' 'B3u' 'Ag']
irreps of each MO ['Ag' 'Ag' 'B2u' 'B3u' 'B1u' 'B1u' 'B3u' 'B2u' 'Ag' 'Ag' 'B3g' 'B2g' 'B1g'
 'Ag' 'B1u' 'B3u' 'B2u' 'Ag' 'B1u' 'B3u' 'B2u' 'B1u' 'Au' 'B3u' 'B2u' 'Ag'
 'B3g' 'B2g' 'B1g' 'Ag' 'B1u' 'B2u' 'B3u' 'Ag' 'Ag' 'B3g' 'B2g' 'Ag' 'B1g'
 'B3g' 'B2g' 'Ag' 'B1g' 'B1u' 'B2u' 'B3u' 'B1u' 'Au' 'B2u' 'B3u' 'Ag'
 'B2g' 'B3g' 'B1g' 'Ag' 'B1u' 'B3u' 'B2u' 'B1u' 'B2u' 'B3u' 'B1u' 'Au'
 'B2u' 'B3u' 'Au' 'B1u' 'B3u' 'B2u' 'Ag' 'B1u' 'B3u' 'B2u' 'Au' 'B1u'
 'B2u' 'B3u' 'Ag' 'B2g' 'B3g' 'B1g' 'Ag' 'B3g' 'B2g' 'B1g' 'Ag' 'Ag' 'B2g'
 'B3g' 'Ag' 'B1g' 'B1u' 'B3u' 'B2u' 'B1u' 'B3u' 'B2u' 'B1u' 'Au' 'B3u'
 'B2u' 'Au' 'B1u' 'B3u' 'B2u' 'Ag' 'B2g' 'B3g' 'B1g' 'Ag' 'B2g' 'B3g'
 'B1g' 'Ag' 'B1u' 'B3u' 'B2u' 'Au' 'B1u' 'B3u' 'B2u' 'Ag' 'B3g' 'B2g'
 'B1g' 'Ag' 'Ag' 'B1u' 'B2u' 'B3u' 'B1u' 'B3u' 'B2u' 'B1u' 'Au' 'B2u'
 'B3u' 'B1u' 'Au' 'B2u' 'B3u' 'B1u' 'B3u' 'B2u' 'B1u' 'Au' 'B2u' 'B3u'
 'Ag' 'B2g' 'B3g' 'Ag' 'B1g' 'B3g' 'B2g' 'B1g' 'Ag' 'Ag' 'B3g' 'B2g' 'Ag'
 'B1g' 'Ag' 'B1u' 'B2u' 'B3u' 'Ag' 'B3g' 'B2g' 'B1g' 'Ag' 'B1u' 'B2u'
 'B3u' 'B1u' 'Au' 'B3u' 'B2u' 'Ag' 'Ag' 'B2g' 'B3g' 'Ag' 'B1g' 'B2g' 'B3g'
 'B1g' 'Ag' 'B1u' 'B2u' 'B3u' 'Ag' 'B3g' 'B2g' 'B1g' 'Ag' 'Ag' 'B1u' 'B2u'
 'B3u' 'Au' 'B1u' 'B2u' 'B3u' 'B1u' 'B2u' 'B3u' 'Ag' 'B2g' 'B3g' 'Ag'
 'B1g' 'Ag' 'B1u' 'B2u' 'B3u' 'Ag']
