 &FCI NORB=   2,NELEC= 2,MS2=0,
  ORBSYM=1,1
  ISYM=1, UHF=TRUE
 &END
 1.055712895050241    1    1    1    1
 1.055712895050241    2    2    2    2
 1.055712895050241    1    1    2    2
 1.055712895050241    2    2    1    1
 -1.931748420029463    1    1  0  0
 -1.931748420029463    2    2  0  0
 0  0  0  0  0
