 **********************************************************************
                          MRCC program system
 **********************************************************************
 
                              Written by
     Mihaly Kallay, Peter R. Nagy, David Mester, Laszlo Gyevi-Nagy,
        Jozsef Csoka, P. Bernat Szabo, Zoltan Rolik, Gyula Samu,
      Bence Hegely, Bence Ladoczki, Klara Petrov, Jozsef Csontos,
     Adam Ganyecz, Istvan Ladjanszki, Lorant Szegedy, Mate Farkas,
          Pal D. Mezei, Reka A. Horvath, and Balazs D. Lorincz
 
        Department of Physical Chemistry and Materials Science
            Budapest University of Technology and Economics
                  Budapest P.O.Box 91, H-1521 Hungary
 
                              www.mrcc.hu
 
                            Version: 25.1.0

 ************************ 2025-10-22 01:52:04 *************************
 Executing minp...

 Reading input from MINP...
 
 Input file:
 
basis=aVDZ-EMSL
iface=cfour
uncontract=off
calc=CCSD
ccprog=mrcc
mem=4GB
core=frozen
itol=18
scftol=13
cctol=6
ccmaxit=999
scfmaxit=9999
scfiguess=ao
scftype=UHF
#rohftype=semicanonical
rest=2
charge=+0
mult=4
#refdet=serialno
symm=5
occ=2,0,0,0,0,1,1,1/2,0,0,0,0,0,0,0
geom
N

#Li 1 R
#R=3.065

#unit=angstroms

tprint=0.01
verbosity=3
#nstate=4
 
 
 Checking keyword combinations...
 
 Keywords:
 
 active=none
 agrid=ld0006-ld0590
 agrid_pssp=ld0006-ld0194
 agrid_pssp_sm=ld0006-ld0074
 basis=avdz-emsl
 basis_sm=none
 basopt=off
 bfbasis=none
 bfgsmem=10
 bfgstol=1.0d-3
 boysalg=jacobi
 bpcompo=0.985
 bpcompv=0.98
 bpdfo=0.985
 bpocc=0.985
 bppdo=0.985
 bppdv=0.98
 bpedo=0.985
 bpedv=0.98
 bp_subsyso=0.95
 bp_subsysv=0.95
 cabscorr=off
 cabsdual=off
 calc=ccsd
 ccmaxit=999
 ccprog=mrcc
 ccsdalg=disk
 ccsdmkl=seq
 ccsdrest=off
 ccsdthreads=2
 cctol=6
 charge=+0
 cialg=disk
 ciguess=off
 cmpgrp=auto
 comprest=off
 coord_sys=ric
 core=frozen
 corembed=off
 csapprox=off
 cvs=off
 dboc=off
 deltaf12=off
 delocsomofact=
 dendec=cholesky
 dens=0
 denscorr=0
 dfalg=lineq
 dfbasis_cab=none
 dfbasis_cor=none
 dfbasis_scf=none
 dfbasis_scf_sm=auto
 dfintran=ovirt
 dft=off
 dhexc=adc(2)
 diag=david
 docc=
 domrad=10.d0
 drpaalg=fit
 dual=off
 dual_df=off
 dyson=off
 ecp=auto
 edisp=off
 edisp_embed=off
 embed=off
 epairestfact=off
 epairscale=1.d0
 etemp=300
 epert=none
 eps=
 espcharge=off
 excrad=0.d0
 excrad_f12=0.d0
 excrad_fin=0.000000000D+00
 fastdbbsc=v2
 fitting=coulomb
 fmm=off
 fmmord=8
 fnonorb=
 freq=off
 gamma=1.d0
 gauss=spher
 geom=zmat
 gopt=off
 ghost=none
 gtol=7
 grdens=off
 grid=auto
 grid_sm=auto
 gridbatch_cos=2000
 grtol=10
 guido_ct=off
 hamilton=dc
 iface=cfour
 incore=off
 intalg=auto
 ip_ea=off
 itol=18
 laptol=1.d-2
 lccoporder=trffirst
 lcorthr=normal
 lccrest=off
 ldfgrad_tol=8
 lmp2dens=on
 lnoepso=0.d0
 lnoepsv=1e-6
 localcc=off
 localcorrsymm=off
 locintrf=disk
 mact=
 maxact=off
 maxdim=200
 maxex=0
 maxmicroit=100
 mcscfiguess=hf
 mem=4gb
 mmprog=
 molden=on
 mp2ongrid=off
 mpitasks=1
 mulmet=0
 mult=4
 nab=off
 nacto=0
 nactv=0
 naf_amp=3.16d-3
 naf_cor=off
 naf_f12=off
 naf_scf=off
 nafalg=albe
 nafdens=off
 naftyp=
 nchol=auto
 ndeps=1e-3
 nstate=1
 nsing=0
 nto=off
 ntrip=0
 num_grad=off
 occ=2,0,0,0,0,1,1,1/2,0,0,0,0,0,0,0
 occri=off
 oniom=off
 oniom_eechg=off
 oniom_pcm=off
 oniom_qcorr=off
 optalg=
 optmaxit=50
 optetol=1e-6
 optex=0
 optgtol=1e-4
 optstol=1e-3
 orblocc=off
 orbloce=off
 orbloco=off
 orblocv=off
 orblocguess=cholesky
 osveps=1e-3
 ovirt=off
 ovltol=1e-7
 ovosnorb=80.0
 pao_subsys_tol=1e-3
 pao_tol=1e-3
 pcm=off
 popul=off
 pressure=100000
 pssp=off
 ptfreq=0.0
 ptthreads=2
 qmreg=
 qmmm=off
 qro=off
 qscf=off
 redcost_exc=off
 redcost_tddft=off
 refdet=none
 rest=2
 rgrid=log3
 rism=off
 rohfcore=semicanonical
 rohftype=standard
 scfalg=auto
 scf_conv=auto
 scfdamp=0.0d0
 scfdamp_mode=off
 scfdamp_end=9999
 scfdamp_dampstep=0.d0
 scfdamp_dtol=0.0d0
 scfdamp_maxfact=0.0d0
 scfdamp_minfact=0.0d0
 scfdiis=on
 scfdiis_dtol=0.0d0
 scfdiis_end=9999
 scfdiis_start=2
 scfdiis_step=1
 scfdiis_watch=off
 scfdiis_wrange=10
 scfdiis_wlimit=5
 scfdiis_delmax=2
 scfdtol=14
 scfext=10
 scfguessdens=
 scfiguess=ao
 scfloc=off
 scflshift=0.20
 scflshift_end=8
 scflshift_dtol=0.0
 scflshift_gaptol=0.20
 scfmaxit=9999
 scftype=uhf
 scftol=13
 scspe=1.d0
 scsph=1.d0
 scsps=1.2d0
 scsps_t=1.2d0
 scspt=0.33333333333333
 scspt_t=0.33333333333333
 scspv=1.d0
 spairtol=1e-4
 sqmprog=
 subminp=top
 subsys_bopu=on
 symm=5
 talg=occ
 temp=298.15
 test=off
 theodore=off
 tlmo=0.999
 tpao=0.94
 tprint=0.01
 uncontract=off
 unit=angs
 usedisk=2
 verbosity=3
 wpairtol=0.100000000E-05
 ispstart=
 ispend=

 ************************ 2025-10-22 01:52:05 *************************
 Executing goldstone...

 Generation of CC equations in terms of H and T...
 Generation of antisymmetrized Goldstone diagrams...
 Number of diagrams in T^1 equations:    14
 Number of diagrams in T^2 equations:    31
 Translation of diagrams to factorized equations...
 Optimizing intermediate calculation...
 Number of floating-point operations per iteration step:   2.5012E+05
 Probable CPU time per iteration step (hours):            0.00
 Required memory (Mbytes):            19.5
 Number of intermediates:                                  43
 Number of intermediates to be stored:                     20
 Length of intermediate file (Mbytes):             0.4

 ************************ 2025-10-22 01:52:05 *************************
 Executing xmrcc...

 **********************************************************************
 CC(                     2 ) calculation 
 
 
 Allocation of         4096.0 Mbytes of memory...
 Number of spinorbitals:                    44
 Number of alpha electrons:                        4
 Number of beta electrons:                         1
 Spin multiplicity:                     2
 z-component of spin:  1.5
 Spatial symmetry:                      5
 Convergence criterion:  1.0E-06
 Construction of occupation graphs...
 Number of                     0 -fold excitations:                      1
 Number of                     1 -fold excitations:                     18
 Number of                     2 -fold excitations:                    336
 Total number of configurations:                    355
 Calculation of coupling coefficients...
 Length of intermediate file (Mbytes):             0.5
 
 ======================================================================
 
 Memory requirements /Mbyte/: 
               Minimal        Optimal
 Real*8:          2.1837         3.8160
 Integer:         3.3633
 Total:           5.5471         7.1793
 

 ************************ 2025-10-22 01:52:05 *************************
 Executing goldstone...

 Generation of CC equations in terms of H and T...
 Generation of antisymmetrized Goldstone diagrams...
 Number of diagrams in T^1 equations:    14
 Number of diagrams in T^2 equations:    31
 Translation of diagrams to factorized equations...
 Optimizing intermediate calculation...
 Number of floating-point operations per iteration step:   2.5012E+05
 Probable CPU time per iteration step (hours):            0.00
 Required memory (Mbytes):            19.5
 Number of intermediates:                                  43
 Number of intermediates to be stored:                     20
 Length of intermediate file (Mbytes):             0.4

 ************************ 2025-10-22 01:52:05 *************************
 Executing xmrcc...

 **********************************************************************
 CC(                     2 ) calculation 
 
 
 Allocation of         4096.0 Mbytes of memory...
 Number of spinorbitals:                    44
 Number of alpha electrons:                        4
 Number of beta electrons:                         1
 Spin multiplicity:                     2
 z-component of spin:  1.5
 Spatial symmetry:                      5
 Convergence criterion:  1.0E-06
 Construction of occupation graphs...
 Number of                     0 -fold excitations:                      1
 Number of                     1 -fold excitations:                     18
 Number of                     2 -fold excitations:                    336
 Total number of configurations:                    355
 Calculation of coupling coefficients...
 Length of intermediate file (Mbytes):             0.5
 
 ======================================================================
 
 Memory requirements /Mbyte/: 
               Minimal        Optimal
 Real*8:          2.1837         3.8160
 Integer:         3.3633
 Total:           5.5471         7.1793
 

 ************************ 2025-10-22 01:52:05 *************************
 Executing mrcc...

 **********************************************************************
 CCSD calculation                                                       
 
 
 OpenMP parallel version is running.
 Number of CPU cores:  64
 Allocation of            3.8 Mbytes of memory...
 Number of spinorbitals:  44
 Number of alpha electrons:  4
 Number of beta  electrons:  1
 Spin multiplicity: 4
 z-component of spin:  1.5
 Spatial symmetry: 5
 Convergence criterion:  1.0E-06
 Construction of occupation graphs...
 Number of 0-fold excitations: 1
 Number of 1-fold excitations: 18
 Number of 2-fold excitations: 336
 Total number of determinants: 355
 Calculation of coupling coefficients...
 Initial cluster amplitudes are generated.
 Length of intermediate file (Mbytes):       0.5
 Reading integral list from unit 55...
 Sorting integrals...
 Sorting integrals...
 Sorting integrals...
 Sorting integrals...
 Energy of reference determinant [au]:     -54.393183389642
 Calculation of MP denominators...
 
 Starting CC iteration...
 ======================================================================
 Norm of residual vector:     0.52357777
 CPU time [min]:     0.258                   Wall time [min]:     0.007
 
 Iteration  1  CC energy:   -54.46817359  Energy decrease:   0.07499020
 ======================================================================
 Norm of residual vector:     0.10147786
 CPU time [min]:     0.353                   Wall time [min]:     0.009
 
 Iteration  2  CC energy:   -54.48402718  Energy decrease:   0.01585360
 ======================================================================
 Norm of residual vector:     0.02121040
 CPU time [min]:     0.431                   Wall time [min]:     0.011
 
 Iteration  3  CC energy:   -54.48537500  Energy decrease:   0.00134782
 ======================================================================
 Norm of residual vector:     0.00577395
 CPU time [min]:     0.519                   Wall time [min]:     0.013
 
 Iteration  4  CC energy:   -54.48570432  Energy decrease:   0.00032932
 ======================================================================
 Norm of residual vector:     0.00188678
 CPU time [min]:     0.621                   Wall time [min]:     0.015
 
 Iteration  5  CC energy:   -54.48571038  Energy decrease:   0.00000606
 ======================================================================
 Norm of residual vector:     0.00057158
 CPU time [min]:     0.713                   Wall time [min]:     0.017
 
 Iteration  6  CC energy:   -54.48569942  Energy decrease:   0.00001096
 ======================================================================
 Norm of residual vector:     0.00012344
 CPU time [min]:     0.788                   Wall time [min]:     0.019
 
 Iteration  7  CC energy:   -54.48570894  Energy decrease:   0.00000952
 ======================================================================
 Norm of residual vector:     0.00002835
 CPU time [min]:     0.866                   Wall time [min]:     0.020
 
 Iteration  8  CC energy:   -54.48570763  Energy decrease:   0.00000131
 ======================================================================
 Norm of residual vector:     0.00000546
 CPU time [min]:     0.935                   Wall time [min]:     0.022
 
 Iteration  9  CC energy:   -54.48570782  Energy decrease:   0.00000019
 ======================================================================
 Norm of residual vector:     0.00000103
 CPU time [min]:     1.010                   Wall time [min]:     0.023
 
 Iteration 10  CC energy:   -54.48570782  Energy decrease:   0.00000001
 ======================================================================
 Norm of residual vector:     0.00000021
 CPU time [min]:     1.089                   Wall time [min]:     0.024
 
 Iteration 11  CC energy:   -54.48570781  Energy decrease:   0.00000001
 ======================================================================
 
 Iteration has converged in 11 steps.
 
 Final results:
 Total CCSD energy [au]:                      -54.485707812336
 Total MP2 energy [au]:                       -54.468173585064
 
 Dominant cluster amplitudes
 Printing threshold:  1.00E-02
 
    1.000000  Reference determinant                                     
    0.011606  2a -> 6a                                                  
    0.011606  3a -> 7a                                                  
    0.011606  4a -> 8a                                                  
   -0.012219  1a 1b -> 17a 5b                                           
   -0.012023  1a 1b -> 5a 17b                                           
   -0.020216  1a 1b -> 17a 17b                                          
   -0.010111  1a 1b -> 18a 18b                                          
   -0.010111  1a 1b -> 19a 19b                                          
   -0.010111  1a 1b -> 20a 20b                                          
   -0.010111  1a 1b -> 21a 21b                                          
   -0.010111  1a 1b -> 22a 22b                                          
   -0.012481  1a 1b -> 6a 6b                                            
   -0.010853  1a 1b -> 14a 6b                                           
   -0.012738  1a 1b -> 14a 14b                                          
   -0.012481  1a 1b -> 7a 7b                                            
   -0.010853  1a 1b -> 15a 7b                                           
   -0.012738  1a 1b -> 15a 15b                                          
   -0.012481  1a 1b -> 8a 8b                                            
   -0.010853  1a 1b -> 16a 8b                                           
   -0.012738  1a 1b -> 16a 16b                                          
   -0.024387  2a 1b -> 10a 2b                                           
   -0.018953  2a 1b -> 18a 2b                                           
   -0.013828  2a 1b -> 5a 6b                                            
    0.027553  2a 1b -> 10a 6b                                           
    0.024594  2a 1b -> 18a 6b                                           
   -0.011727  2a 1b -> 5a 14b                                           
   -0.013536  2a 1b -> 17a 14b                                          
    0.011277  2a 1b -> 18a 14b                                          
   -0.021127  2a 1b -> 12a 4b                                           
   -0.016414  2a 1b -> 21a 4b                                           
    0.023869  2a 1b -> 12a 8b                                           
    0.021299  2a 1b -> 21a 8b                                           
   -0.021127  2a 1b -> 13a 3b                                           
   -0.016414  2a 1b -> 22a 3b                                           
    0.023869  2a 1b -> 13a 7b                                           
    0.021299  2a 1b -> 22a 7b                                           
   -0.011612  2a 1b -> 6a 5b                                            
   -0.017905  2a 1b -> 14a 5b                                           
   -0.011923  2a 1b -> 6a 17b                                           
   -0.025924  2a 1b -> 14a 17b                                          
    0.020812  3a 1b -> 9a 3b                                            
    0.012727  3a 1b -> 10a 3b                                           
    0.016481  3a 1b -> 19a 3b                                           
   -0.013828  3a 1b -> 5a 7b                                            
   -0.023513  3a 1b -> 9a 7b                                            
   -0.014380  3a 1b -> 10a 7b                                           
   -0.012144  3a 1b -> 18a 7b                                           
   -0.021387  3a 1b -> 19a 7b                                           
   -0.011727  3a 1b -> 5a 15b                                           
   -0.013536  3a 1b -> 17a 15b                                          
   -0.021127  3a 1b -> 11a 4b                                           
   -0.016414  3a 1b -> 20a 4b                                           
    0.023869  3a 1b -> 11a 8b                                           
    0.021299  3a 1b -> 20a 8b                                           
   -0.021127  3a 1b -> 13a 2b                                           
   -0.016414  3a 1b -> 22a 2b                                           
    0.023869  3a 1b -> 13a 6b                                           
    0.021299  3a 1b -> 22a 6b                                           
   -0.011612  3a 1b -> 7a 5b                                            
   -0.017905  3a 1b -> 15a 5b                                           
   -0.011923  3a 1b -> 7a 17b                                           
   -0.025924  3a 1b -> 15a 17b                                          
   -0.021428  4a 1b -> 9a 4b                                            
    0.011660  4a 1b -> 10a 4b                                           
   -0.016346  4a 1b -> 19a 4b                                           
   -0.013828  4a 1b -> 5a 8b                                            
    0.024210  4a 1b -> 9a 8b                                            
   -0.013173  4a 1b -> 10a 8b                                           
   -0.012449  4a 1b -> 18a 8b                                           
    0.021211  4a 1b -> 19a 8b                                           
   -0.011727  4a 1b -> 5a 16b                                           
   -0.013536  4a 1b -> 17a 16b                                          
   -0.021127  4a 1b -> 11a 3b                                           
   -0.016414  4a 1b -> 20a 3b                                           
    0.023869  4a 1b -> 11a 7b                                           
    0.021299  4a 1b -> 20a 7b                                           
   -0.021127  4a 1b -> 12a 2b                                           
   -0.016414  4a 1b -> 21a 2b                                           
    0.023869  4a 1b -> 12a 6b                                           
    0.021299  4a 1b -> 21a 6b                                           
   -0.011612  4a 1b -> 8a 5b                                            
   -0.017905  4a 1b -> 16a 5b                                           
   -0.011923  4a 1b -> 8a 17b                                           
   -0.025924  4a 1b -> 16a 17b                                          
   -0.010904  3a 4a -> 7a 8a                                            
    0.015361  3a 4a -> 9a 11a                                           
    0.015712  3a 4a -> 8a 15a                                           
   -0.015712  3a 4a -> 7a 16a                                           
   -0.029160  3a 4a -> 15a 16a                                          
   -0.010785  3a 4a -> 11a 19a                                          
    0.010782  3a 4a -> 9a 20a                                           
    0.014895  3a 4a -> 19a 20a                                          
   -0.010904  2a 4a -> 6a 8a                                            
   -0.013109  2a 4a -> 10a 12a                                          
    0.015712  2a 4a -> 8a 14a                                           
   -0.015712  2a 4a -> 6a 16a                                           
   -0.029160  2a 4a -> 14a 16a                                          
   -0.012953  2a 4a -> 18a 21a                                          
   -0.010904  2a 3a -> 6a 7a                                            
   -0.013497  2a 3a -> 10a 13a                                          
    0.015712  2a 3a -> 7a 14a                                           
   -0.015712  2a 3a -> 6a 15a                                           
   -0.029160  2a 3a -> 14a 15a                                          
   -0.012846  2a 3a -> 18a 22a                                          
   -0.010065  1a 2a -> 5a 14a                                           
    0.016086  1a 2a -> 14a 17a                                          
   -0.010065  1a 3a -> 5a 15a                                           
    0.016086  1a 3a -> 15a 17a                                          
   -0.010065  1a 4a -> 5a 16a                                           
    0.016086  1a 4a -> 16a 17a                                          
 
 ************************ 2025-10-22 01:52:07 *************************
                      Normal termination of mrcc.
 **********************************************************************
