#INFO: **** input file is /lustre09/project/6004934/jaafar1/PySCF-MRCC/Nitrogen/AE/neutral/dawCV4Z/UHF/input.py ****
import pyscf
from pyscf import cc, lib, tools, scf, symm, ao2mo
from pyscf.gto.basis import parse_gaussian
from pyscf.scf import atom_hf

name = 'out'
mol = pyscf.M(
    atom = '''
        N
    ''',
    unit = 'angstrom',
    basis = {
            'N' : parse_gaussian.load('N-d-aug-cc-pwCVQZ.gbs', 'N')
    },
    charge = 0,
    spin = 3,
    symmetry = True,
    verbose = 9,
    symmetry_subgroup = 'D2h',
    output = name +'.txt',
    max_memory = 64000,
)

original_AtomSphAverageRHF = atom_hf.AtomSphAverageRHF

class CustomAtomSphAverageRHF(original_AtomSphAverageRHF):
    def __init__(self, mol):
        super().__init__(mol)
        self.max_cycle = 9999
        self.direct_scf = False

atom_hf.AtomSphAverageRHF = CustomAtomSphAverageRHF

mf = mol.UHF().set(
    conv_tol=1e-13,
    max_cycle=9999,
    ddm_tol=1e-12,
    direct_scf=False,
    chkfile=name + '.chk',
    init_guess='atom',
    irrep_nelec={'Ag': 4, 'B3u': 1, 'B2u': 1, 'B1u': 1}
)

mf.kernel()

atom_hf.AtomSphAverageRHF = original_AtomSphAverageRHF

#pyscf.tools.fcidump.from_chkfile_uhf('FCIdump',name+'.chk',tol=1e-18, float_format='% 0.20E',molpro_orbsym=False,orbsym=None)
pyscf.tools.fcidump.from_scf_uhf(mf,'fort.55',tol=1e-18, float_format='% 0.20E',molpro_orbsym=False)
#MRCCInterface.run_mrcc(mf, fort_file='fort.55', mrcc_input_file='MINP', tol=1e-18, float_format='% 0.20E', molpro_orbsym=False)
#INFO: ******************** input file end ********************


System: uname_result(system='Linux', node='rc32001', release='5.14.0-687.15.1.el9_8.x86_64', version='#1 SMP PREEMPT_DYNAMIC Thu Jun 11 08:51:45 EDT 2026', machine='x86_64')  Threads 4
Python 3.13.2 (main, Feb  5 2025, 15:06:39) [GCC 13.3.0]
numpy 2.2.2  scipy 1.15.1  h5py 3.13.0
Date: Mon Jun 22 04:33:41 2026
PySCF version 2.10.0
PySCF path  /home/jaafar1/links/projects/rrg-tzeng/jaafar1/VENV/MRCCInterface/lib/python3.13/site-packages/pyscf

[CONFIG] ARGPARSE = False
[CONFIG] DEBUG = False
[CONFIG] MAX_MEMORY = 4000
[CONFIG] TMPDIR = /tmp
[CONFIG] UNIT = angstrom
[CONFIG] VERBOSE = 3
[CONFIG] conf_file = None
[INPUT] verbose = 9
[INPUT] max_memory = 64000 
[INPUT] num. atoms = 1
[INPUT] num. electrons = 7
[INPUT] charge = 0
[INPUT] spin (= nelec alpha-beta = 2S) = 3
[INPUT] symmetry True subgroup D2h
[INPUT] Mole.unit = angstrom
[INPUT] Symbol           X                Y                Z      unit          X                Y                Z       unit  Magmom
[INPUT]  1 N      0.000000000000   0.000000000000   0.000000000000 AA    0.000000000000   0.000000000000   0.000000000000 Bohr   0.0
[INPUT] ---------------- BASIS SET ---------------- 
[INPUT] l, kappa, [nprim/nctr], expnt,             c_1 c_2 ...
[INPUT] N
[INPUT] 0    0    [1    /1   ]  54.917               1
[INPUT] 0    0    [1    /1   ]  20.735               1
[INPUT] 0    0    [12   /2   ]  45840             9.2e-05 -2e-05
                                6868              0.000717 -0.000159
                                1563              0.003749 -0.000824
                                442.4             0.015532 -0.003478
                                144.3             0.053146 -0.011966
                                52.18             0.146787 -0.035388
                                20.34             0.304663 -0.080077
                                8.381             0.397684 -0.146722
                                3.529             0.217641 -0.11636
                                1.054             0.016963 0.279919
                                0.4118            -0.002745 0.585481
                                0.1552            0.000953 0.284028
[INPUT] 0    0    [1    /1   ]  7.829                1
[INPUT] 0    0    [1    /1   ]  1.054                1
[INPUT] 0    0    [1    /1   ]  0.4118               1
[INPUT] 0    0    [1    /1   ]  0.1552               1
[INPUT] 0    0    [1    /1   ]  0.05464              1
[INPUT] 0    0    [1    /1   ]  0.0192               1
[INPUT] 1    0    [1    /1   ]  74.185               1
[INPUT] 1    0    [1    /1   ]  25.19                1
[INPUT] 1    0    [1    /1   ]  8.554                1
[INPUT] 1    0    [1    /1   ]  1.182                1
[INPUT] 1    0    [6    /1   ]  49.33             0.005533
                                11.37             0.037962
                                3.435             0.149028
                                1.182             0.348922
                                0.4173            0.458972
                                0.1428            0.244923
[INPUT] 1    0    [1    /1   ]  0.4173               1
[INPUT] 1    0    [1    /1   ]  0.1428               1
[INPUT] 1    0    [1    /1   ]  0.04402              1
[INPUT] 1    0    [1    /1   ]  0.0136               1
[INPUT] 2    0    [1    /1   ]  31.167               1
[INPUT] 2    0    [1    /1   ]  8.693                1
[INPUT] 2    0    [1    /1   ]  2.837                1
[INPUT] 2    0    [1    /1   ]  0.968                1
[INPUT] 2    0    [1    /1   ]  0.335                1
[INPUT] 2    0    [1    /1   ]  0.111                1
[INPUT] 2    0    [1    /1   ]  0.0368               1
[INPUT] 3    0    [1    /1   ]  8.972                1
[INPUT] 3    0    [1    /1   ]  2.027                1
[INPUT] 3    0    [1    /1   ]  0.685                1
[INPUT] 3    0    [1    /1   ]  0.245                1
[INPUT] 3    0    [1    /1   ]  0.0876               1
[INPUT] 4    0    [1    /1   ]  1.427                1
[INPUT] 4    0    [1    /1   ]  0.559                1
[INPUT] 4    0    [1    /1   ]  0.219                1

nuclear repulsion = 0
point group symmetry = SO3, use subgroup D2h
symmetry origin: [0. 0. 0.]
symmetry axis x: [1. 0. 0.]
symmetry axis y: [0. 1. 0.]
symmetry axis z: [0. 0. 1.]
num. orbitals of irrep Ag = 33
num. orbitals of irrep B1g = 13
num. orbitals of irrep B2g = 13
num. orbitals of irrep B3g = 13
num. orbitals of irrep Au = 5
num. orbitals of irrep B1u = 19
num. orbitals of irrep B2u = 19
num. orbitals of irrep B3u = 19
number of shells = 33
number of NR pGTOs = 159
number of NR cGTOs = 134
basis = {'N': [[0, [54.917, 1.0]], [0, [20.735, 1.0]], [0, [45840.0, 9.2e-05, -2e-05], [6868.0, 0.000717, -0.000159], [1563.0, 0.003749, -0.000824], [442.4, 0.015532, -0.003478], [144.3, 0.053146, -0.011966], [52.18, 0.146787, -0.035388], [20.34, 0.304663, -0.080077], [8.381, 0.397684, -0.146722], [3.529, 0.217641, -0.11636], [1.054, 0.016963, 0.279919], [0.4118, -0.002745, 0.585481], [0.1552, 0.000953, 0.284028]], [0, [7.829, 1.0]], [0, [1.054, 1.0]], [0, [0.4118, 1.0]], [0, [0.1552, 1.0]], [0, [0.05464, 1.0]], [0, [0.0192, 1.0]], [1, [74.185, 1.0]], [1, [25.19, 1.0]], [1, [8.554, 1.0]], [1, [1.182, 1.0]], [1, [49.33, 0.005533], [11.37, 0.037962], [3.435, 0.149028], [1.182, 0.348922], [0.4173, 0.458972], [0.1428, 0.244923]], [1, [0.4173, 1.0]], [1, [0.1428, 1.0]], [1, [0.04402, 1.0]], [1, [0.0136, 1.0]], [2, [31.167, 1.0]], [2, [8.693, 1.0]], [2, [2.837, 1.0]], [2, [0.968, 1.0]], [2, [0.335, 1.0]], [2, [0.111, 1.0]], [2, [0.0368, 1.0]], [3, [8.972, 1.0]], [3, [2.027, 1.0]], [3, [0.685, 1.0]], [3, [0.245, 1.0]], [3, [0.0876, 1.0]], [4, [1.427, 1.0]], [4, [0.559, 1.0]], [4, [0.219, 1.0]]]}
ecp = {}
bas 0, expnt(s) = [54.917]
bas 1, expnt(s) = [20.735]
bas 2, expnt(s) = [4.584e+04 6.868e+03 1.563e+03 4.424e+02 1.443e+02 5.218e+01 2.034e+01
 8.381e+00 3.529e+00 1.054e+00 4.118e-01 1.552e-01]
bas 3, expnt(s) = [7.829]
bas 4, expnt(s) = [1.054]
bas 5, expnt(s) = [0.4118]
bas 6, expnt(s) = [0.1552]
bas 7, expnt(s) = [0.05464]
bas 8, expnt(s) = [0.0192]
bas 9, expnt(s) = [74.185]
bas 10, expnt(s) = [25.19]
bas 11, expnt(s) = [8.554]
bas 12, expnt(s) = [1.182]
bas 13, expnt(s) = [49.33   11.37    3.435   1.182   0.4173  0.1428]
bas 14, expnt(s) = [0.4173]
bas 15, expnt(s) = [0.1428]
bas 16, expnt(s) = [0.04402]
bas 17, expnt(s) = [0.0136]
bas 18, expnt(s) = [31.167]
bas 19, expnt(s) = [8.693]
bas 20, expnt(s) = [2.837]
bas 21, expnt(s) = [0.968]
bas 22, expnt(s) = [0.335]
bas 23, expnt(s) = [0.111]
bas 24, expnt(s) = [0.0368]
bas 25, expnt(s) = [8.972]
bas 26, expnt(s) = [2.027]
bas 27, expnt(s) = [0.685]
bas 28, expnt(s) = [0.245]
bas 29, expnt(s) = [0.0876]
bas 30, expnt(s) = [1.427]
bas 31, expnt(s) = [0.559]
bas 32, expnt(s) = [0.219]
CPU time:         1.04
arg.atm = [[ 7 20  1 23  0  0]]
arg.bas = [[  0   0   1   1   0  24  25   0]
 [  0   0   1   1   0  26  27   0]
 [  0   0  12   2   0  28  40   0]
 [  0   0   1   1   0  64  65   0]
 [  0   0   1   1   0  66  67   0]
 [  0   0   1   1   0  68  69   0]
 [  0   0   1   1   0  70  71   0]
 [  0   0   1   1   0  72  73   0]
 [  0   0   1   1   0  74  75   0]
 [  0   1   1   1   0  76  77   0]
 [  0   1   1   1   0  78  79   0]
 [  0   1   1   1   0  80  81   0]
 [  0   1   1   1   0  82  83   0]
 [  0   1   6   1   0  84  90   0]
 [  0   1   1   1   0  96  97   0]
 [  0   1   1   1   0  98  99   0]
 [  0   1   1   1   0 100 101   0]
 [  0   1   1   1   0 102 103   0]
 [  0   2   1   1   0 104 105   0]
 [  0   2   1   1   0 106 107   0]
 [  0   2   1   1   0 108 109   0]
 [  0   2   1   1   0 110 111   0]
 [  0   2   1   1   0 112 113   0]
 [  0   2   1   1   0 114 115   0]
 [  0   2   1   1   0 116 117   0]
 [  0   3   1   1   0 118 119   0]
 [  0   3   1   1   0 120 121   0]
 [  0   3   1   1   0 122 123   0]
 [  0   3   1   1   0 124 125   0]
 [  0   3   1   1   0 126 127   0]
 [  0   4   1   1   0 128 129   0]
 [  0   4   1   1   0 130 131   0]
 [  0   4   1   1   0 132 133   0]]
arg.env = [ 0.00000000e+00  0.00000000e+00  0.00000000e+00  0.00000000e+00
  0.00000000e+00  0.00000000e+00  0.00000000e+00  0.00000000e+00
  0.00000000e+00  0.00000000e+00  0.00000000e+00  0.00000000e+00
  0.00000000e+00  0.00000000e+00  0.00000000e+00  0.00000000e+00
  0.00000000e+00  0.00000000e+00  0.00000000e+00  0.00000000e+00
  0.00000000e+00  0.00000000e+00  0.00000000e+00  0.00000000e+00
  5.49170000e+01  5.09677108e+01  2.07350000e+01  2.45495228e+01
  4.58400000e+04  6.86800000e+03  1.56300000e+03  4.42400000e+02
  1.44300000e+02  5.21800000e+01  2.03400000e+01  8.38100000e+00
  3.52900000e+00  1.05400000e+00  4.11800000e-01  1.55200000e-01
  7.28175416e-01  1.36664778e+00  2.35450384e+00  3.78532741e+00
  5.59029930e+00  7.19996490e+00  7.37220926e+00  4.94908289e+00
  1.41577482e+00  4.45807991e-02 -3.56510097e-03  5.95355564e-04
 -1.58299222e-01 -3.03064569e-01 -5.17501690e-01 -8.47629852e-01
 -1.25867635e+00 -1.73579887e+00 -1.93769908e+00 -1.82592294e+00
 -7.56933599e-01  7.35661728e-01  7.60401368e-01  1.77437443e-01
  7.82900000e+00  1.18248256e+01  1.05400000e+00  2.62812176e+00
  4.11800000e-01  1.29876262e+00  1.55200000e-01  6.24717701e-01
  5.46400000e-02  2.85527565e-01  1.92000000e-02  1.30313961e-01
  7.41850000e+01  6.35154704e+02  2.51900000e+01  1.64634027e+02
  8.55400000e+00  4.26772031e+01  1.18200000e+00  3.59547471e+00
  4.93300000e+01  1.13700000e+01  3.43500000e+00  1.18200000e+00
  4.17300000e-01  1.42800000e-01  2.11024831e+00  2.31224401e+00
  2.03310728e+00  1.25453908e+00  4.49087192e-01  6.27225673e-02
  4.17300000e-01  9.78464049e-01  1.42800000e-01  2.56091198e-01
  4.40200000e-02  5.88229689e-02  1.36000000e-02  1.35490245e-02
  3.11670000e+01  1.07274287e+03  8.69300000e+00  1.14835542e+02
  2.83700000e+00  1.61820383e+01  9.68000000e-01  2.46496786e+00
  3.35000000e-01  3.84908763e-01  1.11000000e-01  5.56986410e-02
  3.68000000e-02  8.06794760e-03  8.97200000e+00  2.74796507e+02
  2.02700000e+00  9.67010737e+00  6.85000000e-01  8.42003986e-01
  2.45000000e-01  8.32978998e-02  8.76000000e-02  8.23463968e-03
  1.42700000e+00  3.49610952e+00  5.59000000e-01  2.65644956e-01
  2.19000000e-01  2.01901906e-02]
ecpbas  = []


******** <class 'pyscf.scf.uhf_symm.SymAdaptedUHF'> ********
method = SymAdaptedUHF
initial guess = atom
damping factor = 0
level_shift factor = 0
DIIS = <class 'pyscf.scf.diis.CDIIS'>
diis_start_cycle = 1
diis_space = 8
diis_damp = 0
SCF conv_tol = 1e-13
SCF conv_tol_grad = None
SCF ddm_tol = 1e-12
SCF max_cycles = 9999
direct_scf = False
chkfile to save SCF result = out.chk
max_memory 64000 MB (current use 123 MB)
number electrons alpha = 5  beta = 2
irrep_nelec {'Ag': 4, 'B3u': 1, 'B2u': 1, 'B1u': 1}
Freeze 7 electrons in irreps ['Ag', 'B3u', 'B2u', 'B1u']
    0 free electrons in irreps B1g B2g B3g Au
cond(S) = 122841.92673466267

WARN: Singularity detected in overlap matrix (condition number = 1.23e+05). SCF may be inaccurate and hard to converge.

Set gradient conv threshold to 3.16228e-07
Spherically averaged atomic HF for {'N'}


******** <class '__main__.CustomAtomSphAverageRHF'> ********
method = CustomAtomSphAverageRHF
initial guess = minao
damping factor = 0
level_shift factor = 0
DIIS = <class 'pyscf.scf.diis.CDIIS'>
diis_start_cycle = 1
diis_space = 8
diis_damp = 0
SCF conv_tol = 1e-09
SCF conv_tol_grad = None
SCF ddm_tol = 1e-10
SCF max_cycles = 9999
direct_scf = False
chkfile to save SCF result = /tmp/tmpr3k4r9lt
max_memory 64000 MB (current use 125 MB)
atom = N
Set gradient conv threshold to 3.16228e-05
Initial guess from minao.
Nelec from initial guess = 6.9999340712405385
E1 = -74.25521633887172  E_coul = 20.461216384350777
init E= -53.7939999545209
l = 0  e_0 = -15.5374816
l = 0  e_1 = -0.914506529
l = 0  e_2 = 0.0321717061
l = 0  e_3 = 0.187630249
l = 0  e_4 = 0.776758845
l = 0  e_5 = 2.89479614
l = 0  e_6 = 10.8996524
l = 0  e_7 = 37.8905955
l = 0  e_8 = 125.132703
l = 0  e_9 = 515.441522
l = 1  e_0 = -0.167759131
l = 1  e_1 = 0.032856112
l = 1  e_2 = 0.16234805
l = 1  e_3 = 0.65858553
l = 1  e_4 = 2.26550881
l = 1  e_5 = 7.21874482
l = 1  e_6 = 22.1726513
l = 1  e_7 = 70.3598238
l = 1  e_8 = 230.988143
l = 2  e_0 = 0.119790519
l = 2  e_1 = 0.426209485
l = 2  e_2 = 1.21612085
l = 2  e_3 = 3.31645313
l = 2  e_4 = 9.53399022
l = 2  e_5 = 30.0220214
l = 2  e_6 = 110.335034
l = 3  e_0 = 0.370968178
l = 3  e_1 = 1.19016874
l = 3  e_2 = 3.28577012
l = 3  e_3 = 9.22061703
l = 3  e_4 = 36.8540392
l = 4  e_0 = 1.13330598
l = 4  e_1 = 3.26743727
l = 4  e_2 = 8.50193195
    CPU time for initialize scf      1.18 sec, wall time      0.36 sec
l = 0  e_0 = -15.5374816
l = 0  e_1 = -0.914506529
l = 0  e_2 = 0.0321717061
l = 0  e_3 = 0.187630249
l = 0  e_4 = 0.776758845
l = 0  e_5 = 2.89479614
l = 0  e_6 = 10.8996524
l = 0  e_7 = 37.8905955
l = 0  e_8 = 125.132703
l = 0  e_9 = 515.441522
l = 1  e_0 = -0.167759131
l = 1  e_1 = 0.032856112
l = 1  e_2 = 0.16234805
l = 1  e_3 = 0.65858553
l = 1  e_4 = 2.26550881
l = 1  e_5 = 7.21874482
l = 1  e_6 = 22.1726513
l = 1  e_7 = 70.3598238
l = 1  e_8 = 230.988143
l = 2  e_0 = 0.119790519
l = 2  e_1 = 0.426209485
l = 2  e_2 = 1.21612085
l = 2  e_3 = 3.31645313
l = 2  e_4 = 9.53399022
l = 2  e_5 = 30.0220214
l = 2  e_6 = 110.335034
l = 3  e_0 = 0.370968178
l = 3  e_1 = 1.19016874
l = 3  e_2 = 3.28577012
l = 3  e_3 = 9.22061703
l = 3  e_4 = 36.8540392
l = 4  e_0 = 1.13330598
l = 4  e_1 = 3.26743727
l = 4  e_2 = 8.50193195
l = 0  occ = 2 + 0
l = 1  occ = 0 + 1
l = 2  occ = 0 + 0
l = 3  occ = 0 + 0
E1 = -72.59813102591421  E_coul = 18.758510452087773
cycle= 1 E= -53.8396205738264  delta_E= -0.0456  |g|=    0  |ddm|= 0.394
    CPU time for cycle= 1      0.16 sec, wall time      0.04 sec
diis-norm(errvec)=0.2866
diis-c [-0.08213935  1.        ]
l = 0  e_0 = -15.9820033
l = 0  e_1 = -1.09423384
l = 0  e_2 = 0.0287552912
l = 0  e_3 = 0.169911058
l = 0  e_4 = 0.715631434
l = 0  e_5 = 2.73191522
l = 0  e_6 = 10.5943269
l = 0  e_7 = 37.4863126
l = 0  e_8 = 124.677507
l = 0  e_9 = 514.959016
l = 1  e_0 = -0.315417197
l = 1  e_1 = 0.0320714688
l = 1  e_2 = 0.15170259
l = 1  e_3 = 0.600520271
l = 1  e_4 = 2.10838447
l = 1  e_5 = 6.9423772
l = 1  e_6 = 21.7972691
l = 1  e_7 = 69.9210208
l = 1  e_8 = 230.516952
l = 2  e_0 = 0.118385609
l = 2  e_1 = 0.408022944
l = 2  e_2 = 1.14436963
l = 2  e_3 = 3.15364367
l = 2  e_4 = 9.24928841
l = 2  e_5 = 29.6307497
l = 2  e_6 = 109.882003
l = 3  e_0 = 0.367869663
l = 3  e_1 = 1.16172317
l = 3  e_2 = 3.17956881
l = 3  e_3 = 8.97960556
l = 3  e_4 = 36.4572042
l = 4  e_0 = 1.12150567
l = 4  e_1 = 3.20423427
l = 4  e_2 = 8.32397902
l = 0  occ = 2 + 0
l = 1  occ = 0 + 1
l = 2  occ = 0 + 0
l = 3  occ = 0 + 0
E1 = -73.47197982652868  E_coul = 19.623314149921967
cycle= 2 E= -53.8486656766067  delta_E= -0.00905  |g|=    0  |ddm|= 0.174
    CPU time for cycle= 2      0.16 sec, wall time      0.04 sec
diis-norm(errvec)=0.124556
diis-c [-0.00080714  0.29836278  0.70163722]
l = 0  e_0 = -15.8171867
l = 0  e_1 = -1.034623
l = 0  e_2 = 0.0299904312
l = 0  e_3 = 0.175698881
l = 0  e_4 = 0.735342248
l = 0  e_5 = 2.78769022
l = 0  e_6 = 10.7041356
l = 0  e_7 = 37.635072
l = 0  e_8 = 124.84824
l = 0  e_9 = 515.143283
l = 1  e_0 = -0.261477853
l = 1  e_1 = 0.032418223
l = 1  e_2 = 0.156082475
l = 1  e_3 = 0.622110589
l = 1  e_4 = 2.16506442
l = 1  e_5 = 7.04274997
l = 1  e_6 = 21.934692
l = 1  e_7 = 70.0837328
l = 1  e_8 = 230.695031
l = 2  e_0 = 0.11889803
l = 2  e_1 = 0.414270619
l = 2  e_2 = 1.16958627
l = 2  e_3 = 3.21171941
l = 2  e_4 = 9.35247169
l = 2  e_5 = 29.7741915
l = 2  e_6 = 110.050693
l = 3  e_0 = 0.368961626
l = 3  e_1 = 1.17138432
l = 3  e_2 = 3.21668702
l = 3  e_3 = 9.06626391
l = 3  e_4 = 36.6024704
l = 4  e_0 = 1.12552171
l = 4  e_1 = 3.22582787
l = 4  e_2 = 8.38706108
l = 0  occ = 2 + 0
l = 1  occ = 0 + 1
l = 2  occ = 0 + 0
l = 3  occ = 0 + 0
E1 = -73.17212872303656  E_coul = 19.320569717931424
cycle= 3 E= -53.8515590051051  delta_E= -0.00289  |g|=    0  |ddm|= 0.0727
    CPU time for cycle= 3      0.16 sec, wall time      0.04 sec
diis-norm(errvec)=0.0121138
diis-c [-3.84519152e-06 -1.00448639e-01 -1.27530922e-01  1.22797956e+00]
l = 0  e_0 = -15.8233318
l = 0  e_1 = -1.03844956
l = 0  e_2 = 0.0299543141
l = 0  e_3 = 0.175386243
l = 0  e_4 = 0.734289212
l = 0  e_5 = 2.78530274
l = 0  e_6 = 10.6999251
l = 0  e_7 = 37.6294806
l = 0  e_8 = 124.842357
l = 0  e_9 = 515.138061
l = 1  e_0 = -0.263036436
l = 1  e_1 = 0.0324229059
l = 1  e_2 = 0.156065131
l = 1  e_3 = 0.621659103
l = 1  e_4 = 2.16344109
l = 1  e_5 = 7.03931568
l = 1  e_6 = 21.9295617
l = 1  e_7 = 70.0777143
l = 1  e_8 = 230.689262
l = 2  e_0 = 0.118900331
l = 2  e_1 = 0.414084646
l = 2  e_2 = 1.16884423
l = 2  e_3 = 3.20991269
l = 2  e_4 = 9.34895783
l = 2  e_5 = 29.7687796
l = 2  e_6 = 110.044491
l = 3  e_0 = 0.368960334
l = 3  e_1 = 1.17112262
l = 3  e_2 = 3.21558385
l = 3  e_3 = 9.06345191
l = 3  e_4 = 36.5969384
l = 4  e_0 = 1.12545174
l = 4  e_1 = 3.22520187
l = 4  e_2 = 8.38512415
l = 0  occ = 2 + 0
l = 1  occ = 0 + 1
l = 2  occ = 0 + 0
l = 3  occ = 0 + 0
E1 = -73.18484050487989  E_coul = 19.333262890866866
cycle= 4 E= -53.851577614013  delta_E= -1.86e-05  |g|=    0  |ddm|= 0.00848
    CPU time for cycle= 4      0.16 sec, wall time      0.04 sec
diis-norm(errvec)=0.00108503
diis-c [-4.67849875e-08 -5.04943044e-03 -3.26559060e-03 -1.59737844e-04
  1.00847476e+00]
l = 0  e_0 = -15.8241532
l = 0  e_1 = -1.03894907
l = 0  e_2 = 0.029928324
l = 0  e_3 = 0.175286719
l = 0  e_4 = 0.734035369
l = 0  e_5 = 2.78479803
l = 0  e_6 = 10.6992
l = 0  e_7 = 37.6286772
l = 0  e_8 = 124.841574
l = 0  e_9 = 515.137357
l = 1  e_0 = -0.263377315
l = 1  e_1 = 0.0324174159
l = 1  e_2 = 0.15600553
l = 1  e_3 = 0.621428822
l = 1  e_4 = 2.16297799
l = 1  e_5 = 7.03864714
l = 1  e_6 = 21.9287757
l = 1  e_7 = 70.0769047
l = 1  e_8 = 230.688503
l = 2  e_0 = 0.118887849
l = 2  e_1 = 0.413988477
l = 2  e_2 = 1.16857613
l = 2  e_3 = 3.20941265
l = 2  e_4 = 9.3482541
l = 2  e_5 = 29.7679689
l = 2  e_6 = 110.04368
l = 3  e_0 = 0.368933186
l = 3  e_1 = 1.17096996
l = 3  e_2 = 3.21518905
l = 3  e_3 = 9.06279619
l = 3  e_4 = 36.5961114
l = 4  e_0 = 1.12536792
l = 4  e_1 = 3.2249123
l = 4  e_2 = 8.38456315
l = 0  occ = 2 + 0
l = 1  occ = 0 + 1
l = 2  occ = 0 + 0
l = 3  occ = 0 + 0
E1 = -73.18688347669789  E_coul = 19.335305678593052
cycle= 5 E= -53.8515777981048  delta_E= -1.84e-07  |g|=    0  |ddm|= 0.000747
    CPU time for cycle= 5      0.16 sec, wall time      0.04 sec
diis-norm(errvec)=3.71834e-05
diis-c [-2.93585924e-10  7.15094870e-04  1.96854927e-04 -1.10454407e-03
 -1.50885784e-01  1.15107838e+00]
l = 0  e_0 = -15.8241396
l = 0  e_1 = -1.03895093
l = 0  e_2 = 0.0299261869
l = 0  e_3 = 0.175281775
l = 0  e_4 = 0.734028562
l = 0  e_5 = 2.78479373
l = 0  e_6 = 10.6992057
l = 0  e_7 = 37.6286885
l = 0  e_8 = 124.841585
l = 0  e_9 = 515.137364
l = 1  e_0 = -0.263375036
l = 1  e_1 = 0.0324171357
l = 1  e_2 = 0.156002844
l = 1  e_3 = 0.621422478
l = 1  e_4 = 2.16297396
l = 1  e_5 = 7.03865016
l = 1  e_6 = 21.9287856
l = 1  e_7 = 70.0769168
l = 1  e_8 = 230.688512
l = 2  e_0 = 0.118886558
l = 2  e_1 = 0.413983547
l = 2  e_2 = 1.16857007
l = 2  e_3 = 3.2094084
l = 2  e_4 = 9.34825882
l = 2  e_5 = 29.7679807
l = 2  e_6 = 110.043692
l = 3  e_0 = 0.368930605
l = 3  e_1 = 1.17096234
l = 3  e_2 = 3.21518111
l = 3  e_3 = 9.06279753
l = 3  e_4 = 36.5961243
l = 4  e_0 = 1.12536167
l = 4  e_1 = 3.22490208
l = 4  e_2 = 8.38455925
l = 0  occ = 2 + 0
l = 1  occ = 0 + 1
l = 2  occ = 0 + 0
l = 3  occ = 0 + 0
E1 = -73.18684809821748  E_coul = 19.335270299578976
cycle= 6 E= -53.8515777986385  delta_E= -5.34e-10  |g|=    0  |ddm|= 3.68e-05
    CPU time for cycle= 6      0.16 sec, wall time      0.04 sec
diis-norm(errvec)=1.86037e-06
diis-c [-8.09127424e-13 -1.02782060e-05  2.73423293e-05 -2.55160528e-04
  8.05003765e-03 -8.96954134e-02  1.08188347e+00]
l = 0  e_0 = -15.8241399
l = 0  e_1 = -1.03895164
l = 0  e_2 = 0.0299261083
l = 0  e_3 = 0.175281722
l = 0  e_4 = 0.734028613
l = 0  e_5 = 2.78479372
l = 0  e_6 = 10.6992055
l = 0  e_7 = 37.6286882
l = 0  e_8 = 124.841585
l = 0  e_9 = 515.137364
l = 1  e_0 = -0.263375409
l = 1  e_1 = 0.0324171393
l = 1  e_2 = 0.156002846
l = 1  e_3 = 0.621422461
l = 1  e_4 = 2.16297388
l = 1  e_5 = 7.03864998
l = 1  e_6 = 21.9287854
l = 1  e_7 = 70.0769166
l = 1  e_8 = 230.688513
l = 2  e_0 = 0.118886498
l = 2  e_1 = 0.413983408
l = 2  e_2 = 1.16856994
l = 2  e_3 = 3.20940829
l = 2  e_4 = 9.34825865
l = 2  e_5 = 29.7679804
l = 2  e_6 = 110.043692
l = 3  e_0 = 0.368930501
l = 3  e_1 = 1.17096216
l = 3  e_2 = 3.215181
l = 3  e_3 = 9.06279744
l = 3  e_4 = 36.5961239
l = 4  e_0 = 1.12536146
l = 4  e_1 = 3.22490191
l = 4  e_2 = 8.38455921
l = 0  occ = 2 + 0
l = 1  occ = 0 + 1
l = 2  occ = 0 + 0
l = 3  occ = 0 + 0
E1 = -73.1868453770795  E_coul = 19.335267578438586
cycle= 7 E= -53.8515777986409  delta_E= -2.42e-12  |g|=    0  |ddm|= 5.56e-06
    CPU time for cycle= 7      0.16 sec, wall time      0.04 sec
diis-norm(errvec)=1.73694e-07
diis-c [-4.75201132e-15  8.15376744e-07 -1.68359727e-06  2.59858696e-05
 -7.82023629e-04  7.18311557e-03 -1.06314287e-01  1.09988808e+00]
l = 0  e_0 = -15.82414
l = 0  e_1 = -1.03895174
l = 0  e_2 = 0.0299260972
l = 0  e_3 = 0.175281699
l = 0  e_4 = 0.734028562
l = 0  e_5 = 2.78479362
l = 0  e_6 = 10.6992054
l = 0  e_7 = 37.6286881
l = 0  e_8 = 124.841584
l = 0  e_9 = 515.137364
l = 1  e_0 = -0.263375493
l = 1  e_1 = 0.0324171379
l = 1  e_2 = 0.156002832
l = 1  e_3 = 0.621422409
l = 1  e_4 = 2.16297379
l = 1  e_5 = 7.03864986
l = 1  e_6 = 21.9287852
l = 1  e_7 = 70.0769165
l = 1  e_8 = 230.688512
l = 2  e_0 = 0.118886491
l = 2  e_1 = 0.41398338
l = 2  e_2 = 1.16856988
l = 2  e_3 = 3.20940818
l = 2  e_4 = 9.34825852
l = 2  e_5 = 29.7679802
l = 2  e_6 = 110.043692
l = 3  e_0 = 0.368930489
l = 3  e_1 = 1.17096212
l = 3  e_2 = 3.21518091
l = 3  e_3 = 9.06279731
l = 3  e_4 = 36.5961238
l = 4  e_0 = 1.12536143
l = 4  e_1 = 3.22490184
l = 4  e_2 = 8.3845591
l = 0  occ = 2 + 0
l = 1  occ = 0 + 1
l = 2  occ = 0 + 0
l = 3  occ = 0 + 0
E1 = -73.18684553364156  E_coul = 19.335267735000716
cycle= 8 E= -53.8515777986408  delta_E= 7.11e-14  |g|=    0  |ddm|= 1.55e-07
    CPU time for cycle= 8      0.16 sec, wall time      0.04 sec
diis-norm(errvec)=1.36245e-08
Linear dependence found in DIIS error vectors.
diis-c [-1.21670517e-15  4.32684828e-07 -8.67260748e-07  1.29939393e-05
 -3.97550373e-04  3.70956577e-03 -5.30173480e-02  4.97832530e-01
  5.51860243e-01]
l = 0  e_0 = -15.82414
l = 0  e_1 = -1.03895174
l = 0  e_2 = 0.0299260969
l = 0  e_3 = 0.175281699
l = 0  e_4 = 0.734028561
l = 0  e_5 = 2.78479362
l = 0  e_6 = 10.6992054
l = 0  e_7 = 37.6286881
l = 0  e_8 = 124.841584
l = 0  e_9 = 515.137364
l = 1  e_0 = -0.263375495
l = 1  e_1 = 0.0324171378
l = 1  e_2 = 0.156002832
l = 1  e_3 = 0.621422408
l = 1  e_4 = 2.16297379
l = 1  e_5 = 7.03864986
l = 1  e_6 = 21.9287852
l = 1  e_7 = 70.0769165
l = 1  e_8 = 230.688512
l = 2  e_0 = 0.118886491
l = 2  e_1 = 0.413983379
l = 2  e_2 = 1.16856988
l = 2  e_3 = 3.20940818
l = 2  e_4 = 9.34825851
l = 2  e_5 = 29.7679802
l = 2  e_6 = 110.043692
l = 3  e_0 = 0.368930488
l = 3  e_1 = 1.17096211
l = 3  e_2 = 3.21518091
l = 3  e_3 = 9.06279731
l = 3  e_4 = 36.5961238
l = 4  e_0 = 1.12536143
l = 4  e_1 = 3.22490184
l = 4  e_2 = 8.3845591
l = 0  occ = 2 + 0
l = 1  occ = 0 + 1
l = 2  occ = 0 + 0
l = 3  occ = 0 + 0
E1 = -73.18684553699657  E_coul = 19.335267738355743
cycle= 9 E= -53.8515777986408  delta_E= 1.42e-14  |g|=    0  |ddm|= 6.98e-09
    CPU time for cycle= 9      0.16 sec, wall time      0.04 sec
diis-norm(errvec)=7.05765e-09
Linear dependence found in DIIS error vectors.
diis-c [-6.38152758e-16  3.56361914e-01 -8.16634892e-07  1.04533658e-05
 -2.34009175e-04  2.27590509e-03 -3.46118371e-02  3.20874006e-01
  3.55324385e-01]
l = 0  e_0 = -15.82414
l = 0  e_1 = -1.03895174
l = 0  e_2 = 0.0299260968
l = 0  e_3 = 0.175281699
l = 0  e_4 = 0.734028561
l = 0  e_5 = 2.78479362
l = 0  e_6 = 10.6992054
l = 0  e_7 = 37.6286881
l = 0  e_8 = 124.841584
l = 0  e_9 = 515.137364
l = 1  e_0 = -0.263375496
l = 1  e_1 = 0.0324171378
l = 1  e_2 = 0.156002832
l = 1  e_3 = 0.621422408
l = 1  e_4 = 2.16297378
l = 1  e_5 = 7.03864985
l = 1  e_6 = 21.9287852
l = 1  e_7 = 70.0769165
l = 1  e_8 = 230.688512
l = 2  e_0 = 0.118886491
l = 2  e_1 = 0.413983379
l = 2  e_2 = 1.16856988
l = 2  e_3 = 3.20940818
l = 2  e_4 = 9.34825851
l = 2  e_5 = 29.7679802
l = 2  e_6 = 110.043692
l = 3  e_0 = 0.368930488
l = 3  e_1 = 1.17096211
l = 3  e_2 = 3.21518091
l = 3  e_3 = 9.06279731
l = 3  e_4 = 36.5961238
l = 4  e_0 = 1.12536143
l = 4  e_1 = 3.22490184
l = 4  e_2 = 8.3845591
l = 0  occ = 2 + 0
l = 1  occ = 0 + 1
l = 2  occ = 0 + 0
l = 3  occ = 0 + 0
E1 = -73.18684553514166  E_coul = 19.335267736500594
cycle= 10 E= -53.8515777986411  delta_E= -2.27e-13  |g|=    0  |ddm|= 1.58e-09
    CPU time for cycle= 10      0.16 sec, wall time      0.04 sec
diis-norm(errvec)=5.83628e-09
Linear dependence found in DIIS error vectors.
diis-c [-5.27535559e-16  2.58192017e-01  2.58328975e-01  2.52901195e-06
 -5.91873048e-05  6.21831346e-04 -1.65437783e-02  2.41643020e-01
  2.57814594e-01]
l = 0  e_0 = -15.82414
l = 0  e_1 = -1.03895174
l = 0  e_2 = 0.0299260968
l = 0  e_3 = 0.175281699
l = 0  e_4 = 0.734028561
l = 0  e_5 = 2.78479362
l = 0  e_6 = 10.6992054
l = 0  e_7 = 37.6286881
l = 0  e_8 = 124.841584
l = 0  e_9 = 515.137364
l = 1  e_0 = -0.263375496
l = 1  e_1 = 0.0324171378
l = 1  e_2 = 0.156002832
l = 1  e_3 = 0.621422407
l = 1  e_4 = 2.16297378
l = 1  e_5 = 7.03864985
l = 1  e_6 = 21.9287852
l = 1  e_7 = 70.0769165
l = 1  e_8 = 230.688512
l = 2  e_0 = 0.118886491
l = 2  e_1 = 0.413983378
l = 2  e_2 = 1.16856988
l = 2  e_3 = 3.20940818
l = 2  e_4 = 9.34825851
l = 2  e_5 = 29.7679802
l = 2  e_6 = 110.043692
l = 3  e_0 = 0.368930488
l = 3  e_1 = 1.17096211
l = 3  e_2 = 3.21518091
l = 3  e_3 = 9.06279731
l = 3  e_4 = 36.5961238
l = 4  e_0 = 1.12536143
l = 4  e_1 = 3.22490184
l = 4  e_2 = 8.3845591
l = 0  occ = 2 + 0
l = 1  occ = 0 + 1
l = 2  occ = 0 + 0
l = 3  occ = 0 + 0
E1 = -73.18684553720283  E_coul = 19.335267738561885
cycle= 11 E= -53.8515777986409  delta_E= 1.14e-13  |g|=    0  |ddm|= 2.35e-09
    CPU time for cycle= 11      0.16 sec, wall time      0.04 sec
diis-norm(errvec)=5.14243e-09
Linear dependence found in DIIS error vectors.
diis-c [-4.03530505e-16  2.05157910e-01  2.05266765e-01  2.05228135e-01
 -2.64525772e-05  4.76482163e-04 -1.31986114e-02  1.92234104e-01
  2.04861669e-01]
l = 0  e_0 = -15.82414
l = 0  e_1 = -1.03895174
l = 0  e_2 = 0.0299260967
l = 0  e_3 = 0.175281698
l = 0  e_4 = 0.73402856
l = 0  e_5 = 2.78479362
l = 0  e_6 = 10.6992054
l = 0  e_7 = 37.6286881
l = 0  e_8 = 124.841584
l = 0  e_9 = 515.137364
l = 1  e_0 = -0.263375498
l = 1  e_1 = 0.0324171378
l = 1  e_2 = 0.156002831
l = 1  e_3 = 0.621422407
l = 1  e_4 = 2.16297378
l = 1  e_5 = 7.03864985
l = 1  e_6 = 21.9287852
l = 1  e_7 = 70.0769165
l = 1  e_8 = 230.688512
l = 2  e_0 = 0.118886491
l = 2  e_1 = 0.413983378
l = 2  e_2 = 1.16856988
l = 2  e_3 = 3.20940818
l = 2  e_4 = 9.34825851
l = 2  e_5 = 29.7679802
l = 2  e_6 = 110.043692
l = 3  e_0 = 0.368930488
l = 3  e_1 = 1.17096211
l = 3  e_2 = 3.21518091
l = 3  e_3 = 9.06279731
l = 3  e_4 = 36.5961238
l = 4  e_0 = 1.12536143
l = 4  e_1 = 3.22490184
l = 4  e_2 = 8.3845591
l = 0  occ = 2 + 0
l = 1  occ = 0 + 1
l = 2  occ = 0 + 0
l = 3  occ = 0 + 0
E1 = -73.18684554560976  E_coul = 19.335267746968817
cycle= 12 E= -53.8515777986409  delta_E= 7.11e-15  |g|=    0  |ddm|= 4.16e-09
    CPU time for cycle= 12      0.16 sec, wall time      0.04 sec
diis-norm(errvec)=3.81666e-09
Linear dependence found in DIIS error vectors.
diis-c [ 1.09803221e-16  2.06876556e-01  2.07830230e-01  2.09153018e-01
  2.16085041e-01  6.33548182e-06  1.02345269e-03 -3.89289453e-02
  1.97954313e-01]
l = 0  e_0 = -15.82414
l = 0  e_1 = -1.03895174
l = 0  e_2 = 0.0299260966
l = 0  e_3 = 0.175281698
l = 0  e_4 = 0.73402856
l = 0  e_5 = 2.78479362
l = 0  e_6 = 10.6992054
l = 0  e_7 = 37.6286881
l = 0  e_8 = 124.841584
l = 0  e_9 = 515.137364
l = 1  e_0 = -0.263375498
l = 1  e_1 = 0.0324171378
l = 1  e_2 = 0.156002831
l = 1  e_3 = 0.621422407
l = 1  e_4 = 2.16297378
l = 1  e_5 = 7.03864985
l = 1  e_6 = 21.9287852
l = 1  e_7 = 70.0769165
l = 1  e_8 = 230.688512
l = 2  e_0 = 0.118886491
l = 2  e_1 = 0.413983378
l = 2  e_2 = 1.16856988
l = 2  e_3 = 3.20940818
l = 2  e_4 = 9.34825851
l = 2  e_5 = 29.7679802
l = 2  e_6 = 110.043692
l = 3  e_0 = 0.368930488
l = 3  e_1 = 1.17096211
l = 3  e_2 = 3.21518091
l = 3  e_3 = 9.06279731
l = 3  e_4 = 36.5961238
l = 4  e_0 = 1.12536143
l = 4  e_1 = 3.22490184
l = 4  e_2 = 8.3845591
l = 0  occ = 2 + 0
l = 1  occ = 0 + 1
l = 2  occ = 0 + 0
l = 3  occ = 0 + 0
E1 = -73.18684553814577  E_coul = 19.33526773950479
cycle= 13 E= -53.851577798641  delta_E= -4.97e-14  |g|=    0  |ddm|= 2.4e-09
    CPU time for cycle= 13      0.16 sec, wall time      0.04 sec
diis-norm(errvec)=1.39059e-09
Linear dependence found in DIIS error vectors.
diis-c [-8.01727328e-17  1.70747512e-01  1.71934666e-01  1.72869722e-01
  1.78341808e-01  1.77583001e-01  1.09206972e-03 -3.53711055e-02
  1.62802327e-01]
l = 0  e_0 = -15.82414
l = 0  e_1 = -1.03895174
l = 0  e_2 = 0.0299260966
l = 0  e_3 = 0.175281698
l = 0  e_4 = 0.73402856
l = 0  e_5 = 2.78479362
l = 0  e_6 = 10.6992054
l = 0  e_7 = 37.6286881
l = 0  e_8 = 124.841584
l = 0  e_9 = 515.137364
l = 1  e_0 = -0.263375498
l = 1  e_1 = 0.0324171378
l = 1  e_2 = 0.156002831
l = 1  e_3 = 0.621422407
l = 1  e_4 = 2.16297378
l = 1  e_5 = 7.03864985
l = 1  e_6 = 21.9287852
l = 1  e_7 = 70.0769165
l = 1  e_8 = 230.688512
l = 2  e_0 = 0.118886491
l = 2  e_1 = 0.413983378
l = 2  e_2 = 1.16856988
l = 2  e_3 = 3.20940818
l = 2  e_4 = 9.34825851
l = 2  e_5 = 29.7679802
l = 2  e_6 = 110.043692
l = 3  e_0 = 0.368930488
l = 3  e_1 = 1.17096211
l = 3  e_2 = 3.21518091
l = 3  e_3 = 9.06279731
l = 3  e_4 = 36.5961238
l = 4  e_0 = 1.12536143
l = 4  e_1 = 3.22490184
l = 4  e_2 = 8.3845591
l = 0  occ = 2 + 0
l = 1  occ = 0 + 1
l = 2  occ = 0 + 0
l = 3  occ = 0 + 0
E1 = -73.18684553830498  E_coul = 19.33526773966409
cycle= 14 E= -53.8515777986409  delta_E= 9.95e-14  |g|=    0  |ddm|= 2.22e-10
    CPU time for cycle= 14      0.16 sec, wall time      0.04 sec
diis-norm(errvec)=1.2568e-09
Linear dependence found in DIIS error vectors.
diis-c [ 2.83712648e-16  1.44852730e-01  1.45786441e-01  1.46470858e-01
  1.50559710e-01  1.50153573e-01  1.50285989e-01 -2.67962424e-02
  1.38686942e-01]
l = 0  e_0 = -15.82414
l = 0  e_1 = -1.03895174
l = 0  e_2 = 0.0299260965
l = 0  e_3 = 0.175281698
l = 0  e_4 = 0.734028559
l = 0  e_5 = 2.78479362
l = 0  e_6 = 10.6992054
l = 0  e_7 = 37.6286881
l = 0  e_8 = 124.841584
l = 0  e_9 = 515.137364
l = 1  e_0 = -0.263375498
l = 1  e_1 = 0.0324171378
l = 1  e_2 = 0.156002831
l = 1  e_3 = 0.621422406
l = 1  e_4 = 2.16297378
l = 1  e_5 = 7.03864985
l = 1  e_6 = 21.9287852
l = 1  e_7 = 70.0769165
l = 1  e_8 = 230.688512
l = 2  e_0 = 0.118886491
l = 2  e_1 = 0.413983378
l = 2  e_2 = 1.16856988
l = 2  e_3 = 3.20940818
l = 2  e_4 = 9.34825851
l = 2  e_5 = 29.7679802
l = 2  e_6 = 110.043692
l = 3  e_0 = 0.368930488
l = 3  e_1 = 1.17096211
l = 3  e_2 = 3.21518091
l = 3  e_3 = 9.06279731
l = 3  e_4 = 36.5961238
l = 4  e_0 = 1.12536143
l = 4  e_1 = 3.22490184
l = 4  e_2 = 8.3845591
l = 0  occ = 2 + 0
l = 1  occ = 0 + 1
l = 2  occ = 0 + 0
l = 3  occ = 0 + 0
E1 = -73.18684553995958  E_coul = 19.335267741318653
cycle= 15 E= -53.8515777986409  delta_E= -3.55e-14  |g|=    0  |ddm|= 4.84e-10
    CPU time for cycle= 15      0.16 sec, wall time      0.04 sec
diis-norm(errvec)=5.49785e-10
Linear dependence found in DIIS error vectors.
diis-c [-2.89052492e-16  1.25000000e-01  1.25000000e-01  1.25000000e-01
  1.25000000e-01  1.25000000e-01  1.25000000e-01  1.25000000e-01
  1.25000000e-01]
l = 0  e_0 = -15.82414
l = 0  e_1 = -1.03895174
l = 0  e_2 = 0.0299260966
l = 0  e_3 = 0.175281698
l = 0  e_4 = 0.734028559
l = 0  e_5 = 2.78479361
l = 0  e_6 = 10.6992054
l = 0  e_7 = 37.6286881
l = 0  e_8 = 124.841584
l = 0  e_9 = 515.137364
l = 1  e_0 = -0.263375498
l = 1  e_1 = 0.0324171378
l = 1  e_2 = 0.156002831
l = 1  e_3 = 0.621422406
l = 1  e_4 = 2.16297378
l = 1  e_5 = 7.03864985
l = 1  e_6 = 21.9287852
l = 1  e_7 = 70.0769165
l = 1  e_8 = 230.688512
l = 2  e_0 = 0.118886491
l = 2  e_1 = 0.413983378
l = 2  e_2 = 1.16856988
l = 2  e_3 = 3.20940818
l = 2  e_4 = 9.34825851
l = 2  e_5 = 29.7679802
l = 2  e_6 = 110.043692
l = 3  e_0 = 0.368930488
l = 3  e_1 = 1.17096211
l = 3  e_2 = 3.21518091
l = 3  e_3 = 9.0627973
l = 3  e_4 = 36.5961238
l = 4  e_0 = 1.12536143
l = 4  e_1 = 3.22490184
l = 4  e_2 = 8.3845591
l = 0  occ = 2 + 0
l = 1  occ = 0 + 1
l = 2  occ = 0 + 0
l = 3  occ = 0 + 0
E1 = -73.18684554320299  E_coul = 19.33526774456208
cycle= 16 E= -53.8515777986409  delta_E= 1.42e-14  |g|=    0  |ddm|= 6.61e-10
    CPU time for cycle= 16      0.16 sec, wall time      0.04 sec
diis-norm(errvec)=1.04627e-09
Linear dependence found in DIIS error vectors.
diis-c [-2.89052492e-16  1.25000000e-01  1.25000000e-01  1.25000000e-01
  1.25000000e-01  1.25000000e-01  1.25000000e-01  1.25000000e-01
  1.25000000e-01]
l = 0  e_0 = -15.82414
l = 0  e_1 = -1.03895174
l = 0  e_2 = 0.0299260966
l = 0  e_3 = 0.175281698
l = 0  e_4 = 0.734028559
l = 0  e_5 = 2.78479361
l = 0  e_6 = 10.6992054
l = 0  e_7 = 37.6286881
l = 0  e_8 = 124.841584
l = 0  e_9 = 515.137364
l = 1  e_0 = -0.263375498
l = 1  e_1 = 0.0324171378
l = 1  e_2 = 0.156002831
l = 1  e_3 = 0.621422406
l = 1  e_4 = 2.16297378
l = 1  e_5 = 7.03864985
l = 1  e_6 = 21.9287852
l = 1  e_7 = 70.0769165
l = 1  e_8 = 230.688512
l = 2  e_0 = 0.118886491
l = 2  e_1 = 0.413983378
l = 2  e_2 = 1.16856988
l = 2  e_3 = 3.20940818
l = 2  e_4 = 9.34825851
l = 2  e_5 = 29.7679802
l = 2  e_6 = 110.043692
l = 3  e_0 = 0.368930488
l = 3  e_1 = 1.17096211
l = 3  e_2 = 3.21518091
l = 3  e_3 = 9.0627973
l = 3  e_4 = 36.5961238
l = 4  e_0 = 1.12536143
l = 4  e_1 = 3.22490184
l = 4  e_2 = 8.3845591
l = 0  occ = 2 + 0
l = 1  occ = 0 + 1
l = 2  occ = 0 + 0
l = 3  occ = 0 + 0
E1 = -73.1868455421696  E_coul = 19.335267743528643
cycle= 17 E= -53.851577798641  delta_E= -4.97e-14  |g|=    0  |ddm|= 2.45e-10
    CPU time for cycle= 17      0.16 sec, wall time      0.04 sec
diis-norm(errvec)=6.29309e-10
Linear dependence found in DIIS error vectors.
diis-c [-2.89052492e-16  1.25000000e-01  1.25000000e-01  1.25000000e-01
  1.25000000e-01  1.25000000e-01  1.25000000e-01  1.25000000e-01
  1.25000000e-01]
l = 0  e_0 = -15.82414
l = 0  e_1 = -1.03895174
l = 0  e_2 = 0.0299260966
l = 0  e_3 = 0.175281698
l = 0  e_4 = 0.734028559
l = 0  e_5 = 2.78479361
l = 0  e_6 = 10.6992054
l = 0  e_7 = 37.6286881
l = 0  e_8 = 124.841584
l = 0  e_9 = 515.137364
l = 1  e_0 = -0.263375498
l = 1  e_1 = 0.0324171378
l = 1  e_2 = 0.156002831
l = 1  e_3 = 0.621422406
l = 1  e_4 = 2.16297378
l = 1  e_5 = 7.03864985
l = 1  e_6 = 21.9287852
l = 1  e_7 = 70.0769165
l = 1  e_8 = 230.688512
l = 2  e_0 = 0.118886491
l = 2  e_1 = 0.413983378
l = 2  e_2 = 1.16856988
l = 2  e_3 = 3.20940818
l = 2  e_4 = 9.34825851
l = 2  e_5 = 29.7679802
l = 2  e_6 = 110.043692
l = 3  e_0 = 0.368930488
l = 3  e_1 = 1.17096211
l = 3  e_2 = 3.21518091
l = 3  e_3 = 9.06279731
l = 3  e_4 = 36.5961238
l = 4  e_0 = 1.12536143
l = 4  e_1 = 3.22490184
l = 4  e_2 = 8.3845591
l = 0  occ = 2 + 0
l = 1  occ = 0 + 1
l = 2  occ = 0 + 0
l = 3  occ = 0 + 0
E1 = -73.18684554162806  E_coul = 19.335267742987075
cycle= 18 E= -53.851577798641  delta_E= -2.84e-14  |g|=    0  |ddm|= 1.35e-10
    CPU time for cycle= 18      0.16 sec, wall time      0.04 sec
diis-norm(errvec)=4.145e-10
Linear dependence found in DIIS error vectors.
diis-c [-2.89052492e-16  1.25000000e-01  1.25000000e-01  1.25000000e-01
  1.25000000e-01  1.25000000e-01  1.25000000e-01  1.25000000e-01
  1.25000000e-01]
l = 0  e_0 = -15.82414
l = 0  e_1 = -1.03895174
l = 0  e_2 = 0.0299260966
l = 0  e_3 = 0.175281698
l = 0  e_4 = 0.734028559
l = 0  e_5 = 2.78479361
l = 0  e_6 = 10.6992054
l = 0  e_7 = 37.6286881
l = 0  e_8 = 124.841584
l = 0  e_9 = 515.137364
l = 1  e_0 = -0.263375498
l = 1  e_1 = 0.0324171378
l = 1  e_2 = 0.156002831
l = 1  e_3 = 0.621422406
l = 1  e_4 = 2.16297378
l = 1  e_5 = 7.03864985
l = 1  e_6 = 21.9287852
l = 1  e_7 = 70.0769165
l = 1  e_8 = 230.688512
l = 2  e_0 = 0.118886491
l = 2  e_1 = 0.413983378
l = 2  e_2 = 1.16856988
l = 2  e_3 = 3.20940818
l = 2  e_4 = 9.34825851
l = 2  e_5 = 29.7679802
l = 2  e_6 = 110.043692
l = 3  e_0 = 0.368930488
l = 3  e_1 = 1.17096211
l = 3  e_2 = 3.21518091
l = 3  e_3 = 9.06279731
l = 3  e_4 = 36.5961238
l = 4  e_0 = 1.12536143
l = 4  e_1 = 3.22490184
l = 4  e_2 = 8.3845591
l = 0  occ = 2 + 0
l = 1  occ = 0 + 1
l = 2  occ = 0 + 0
l = 3  occ = 0 + 0
E1 = -73.18684554106504  E_coul = 19.335267742424016
cycle= 19 E= -53.851577798641  delta_E= -3.55e-14  |g|=    0  |ddm|= 1.21e-10
    CPU time for cycle= 19      0.16 sec, wall time      0.04 sec
diis-norm(errvec)=2.35116e-10
Linear dependence found in DIIS error vectors.
diis-c [-2.89052492e-16  1.25000000e-01  1.25000000e-01  1.25000000e-01
  1.25000000e-01  1.25000000e-01  1.25000000e-01  1.25000000e-01
  1.25000000e-01]
l = 0  e_0 = -15.82414
l = 0  e_1 = -1.03895174
l = 0  e_2 = 0.0299260966
l = 0  e_3 = 0.175281698
l = 0  e_4 = 0.734028559
l = 0  e_5 = 2.78479361
l = 0  e_6 = 10.6992054
l = 0  e_7 = 37.6286881
l = 0  e_8 = 124.841584
l = 0  e_9 = 515.137364
l = 1  e_0 = -0.263375498
l = 1  e_1 = 0.0324171378
l = 1  e_2 = 0.156002831
l = 1  e_3 = 0.621422406
l = 1  e_4 = 2.16297378
l = 1  e_5 = 7.03864985
l = 1  e_6 = 21.9287852
l = 1  e_7 = 70.0769165
l = 1  e_8 = 230.688512
l = 2  e_0 = 0.118886491
l = 2  e_1 = 0.413983378
l = 2  e_2 = 1.16856988
l = 2  e_3 = 3.20940818
l = 2  e_4 = 9.34825851
l = 2  e_5 = 29.7679802
l = 2  e_6 = 110.043692
l = 3  e_0 = 0.368930488
l = 3  e_1 = 1.17096211
l = 3  e_2 = 3.21518091
l = 3  e_3 = 9.06279731
l = 3  e_4 = 36.5961238
l = 4  e_0 = 1.12536143
l = 4  e_1 = 3.22490184
l = 4  e_2 = 8.3845591
l = 0  occ = 2 + 0
l = 1  occ = 0 + 1
l = 2  occ = 0 + 0
l = 3  occ = 0 + 0
E1 = -73.18684554066985  E_coul = 19.335267742028872
cycle= 20 E= -53.851577798641  delta_E= 4.97e-14  |g|=    0  |ddm|= 9.16e-11
    CPU time for cycle= 20      0.16 sec, wall time      0.04 sec
l = 0  e_0 = -15.82414
l = 0  e_1 = -1.03895174
l = 0  e_2 = 0.0299260965
l = 0  e_3 = 0.175281698
l = 0  e_4 = 0.734028559
l = 0  e_5 = 2.78479361
l = 0  e_6 = 10.6992054
l = 0  e_7 = 37.6286881
l = 0  e_8 = 124.841584
l = 0  e_9 = 515.137364
l = 1  e_0 = -0.263375498
l = 1  e_1 = 0.0324171378
l = 1  e_2 = 0.156002831
l = 1  e_3 = 0.621422406
l = 1  e_4 = 2.16297378
l = 1  e_5 = 7.03864985
l = 1  e_6 = 21.9287852
l = 1  e_7 = 70.0769165
l = 1  e_8 = 230.688512
l = 2  e_0 = 0.118886491
l = 2  e_1 = 0.413983378
l = 2  e_2 = 1.16856988
l = 2  e_3 = 3.20940818
l = 2  e_4 = 9.34825851
l = 2  e_5 = 29.7679802
l = 2  e_6 = 110.043692
l = 3  e_0 = 0.368930488
l = 3  e_1 = 1.17096211
l = 3  e_2 = 3.21518091
l = 3  e_3 = 9.06279731
l = 3  e_4 = 36.5961238
l = 4  e_0 = 1.12536143
l = 4  e_1 = 3.22490184
l = 4  e_2 = 8.3845591
l = 0  occ = 2 + 0
l = 1  occ = 0 + 1
l = 2  occ = 0 + 0
l = 3  occ = 0 + 0
E1 = -73.18684554077657  E_coul = 19.33526774213562
Extra cycle  E= -53.851577798641  delta_E= 2.13e-14  |g|=    0  |ddm|= 9.16e-11
    CPU time for scf_cycle      4.49 sec, wall time      1.19 sec
    CPU time for SCF      4.49 sec, wall time      1.19 sec
Atomic HF for atom  N  converged. SCF energy = -53.851577798641

Atom N, E = -53.8515777986
Nelec from initial guess = (np.float64(3.5000000000000013), np.float64(3.5000000000000013))
E1 = -73.18684554077657  Ecoul = 19.335267742135635
init E= -53.8515777986409
    CPU time for initialize scf      5.81 sec, wall time      1.53 sec
alpha HOMO (B1u) = -0.263375498268606  LUMO (Ag) = 0.0299260965485317
alpha irrep_nelec = [2, 0, 0, 0, 0, 1, 1, 1]
beta  irrep_nelec = [2, 0, 0, 0, 0, 0, 0, 0]
alpha-Ag nocc = 2  HOMO = -1.03895174333329  LUMO = 0.0299260965485317
   mo_energy = [-1.58241400e+01 -1.03895174e+00  2.99260965e-02  1.18886491e-01
  1.18886491e-01  1.75281698e-01  4.13983378e-01  4.13983378e-01
  7.34028559e-01  1.12536143e+00  1.12536143e+00  1.12536143e+00
  1.16856988e+00  1.16856988e+00  2.78479361e+00  3.20940818e+00
  3.20940818e+00  3.22490184e+00  3.22490184e+00  3.22490184e+00
  8.38455910e+00  8.38455910e+00  8.38455910e+00  9.34825851e+00
  9.34825851e+00  1.06992054e+01  2.97679802e+01  2.97679802e+01
  3.76286881e+01  1.10043692e+02  1.10043692e+02  1.24841584e+02
  5.15137364e+02]
alpha-B1g nocc = 0
   mo_energy = [  0.11888649   0.41398338   1.12536143   1.12536143   1.16856988
   3.20940818   3.22490184   3.22490184   8.3845591    8.3845591
   9.34825851  29.76798022 110.04369154]
alpha-B2g nocc = 0
   mo_energy = [  0.11888649   0.41398338   1.12536143   1.12536143   1.16856988
   3.20940818   3.22490184   3.22490184   8.3845591    8.3845591
   9.34825851  29.76798022 110.04369154]
alpha-B3g nocc = 0
   mo_energy = [  0.11888649   0.41398338   1.12536143   1.12536143   1.16856988
   3.20940818   3.22490184   3.22490184   8.3845591    8.3845591
   9.34825851  29.76798022 110.04369154]
alpha-Au nocc = 0
   mo_energy = [ 0.36893049  1.17096211  3.21518091  9.06279731 36.59612377]
alpha-B1u nocc = 1  HOMO = -0.263375498268606  LUMO = 0.0324171377715989
   mo_energy = [-2.63375498e-01  3.24171378e-02  1.56002831e-01  3.68930488e-01
  3.68930488e-01  6.21422406e-01  1.17096211e+00  1.17096211e+00
  2.16297378e+00  3.21518091e+00  3.21518091e+00  7.03864985e+00
  9.06279731e+00  9.06279731e+00  2.19287852e+01  3.65961238e+01
  3.65961238e+01  7.00769165e+01  2.30688512e+02]
alpha-B2u nocc = 1  HOMO = -0.263375498268606  LUMO = 0.0324171377716131
   mo_energy = [-2.63375498e-01  3.24171378e-02  1.56002831e-01  3.68930488e-01
  3.68930488e-01  6.21422406e-01  1.17096211e+00  1.17096211e+00
  2.16297378e+00  3.21518091e+00  3.21518091e+00  7.03864985e+00
  9.06279731e+00  9.06279731e+00  2.19287852e+01  3.65961238e+01
  3.65961238e+01  7.00769165e+01  2.30688512e+02]
alpha-B3u nocc = 1  HOMO = -0.263375498268609  LUMO = 0.0324171377716044
   mo_energy = [-2.63375498e-01  3.24171378e-02  1.56002831e-01  3.68930488e-01
  3.68930488e-01  6.21422406e-01  1.17096211e+00  1.17096211e+00
  2.16297378e+00  3.21518091e+00  3.21518091e+00  7.03864985e+00
  9.06279731e+00  9.06279731e+00  2.19287852e+01  3.65961238e+01
  3.65961238e+01  7.00769165e+01  2.30688512e+02]
beta-Ag nocc = 2  HOMO = -1.03895174333329  LUMO = 0.0299260965485317
   mo_energy = [-1.58241400e+01 -1.03895174e+00  2.99260965e-02  1.18886491e-01
  1.18886491e-01  1.75281698e-01  4.13983378e-01  4.13983378e-01
  7.34028559e-01  1.12536143e+00  1.12536143e+00  1.12536143e+00
  1.16856988e+00  1.16856988e+00  2.78479361e+00  3.20940818e+00
  3.20940818e+00  3.22490184e+00  3.22490184e+00  3.22490184e+00
  8.38455910e+00  8.38455910e+00  8.38455910e+00  9.34825851e+00
  9.34825851e+00  1.06992054e+01  2.97679802e+01  2.97679802e+01
  3.76286881e+01  1.10043692e+02  1.10043692e+02  1.24841584e+02
  5.15137364e+02]
beta-B1g nocc = 0
   mo_energy = [  0.11888649   0.41398338   1.12536143   1.12536143   1.16856988
   3.20940818   3.22490184   3.22490184   8.3845591    8.3845591
   9.34825851  29.76798022 110.04369154]
beta-B2g nocc = 0
   mo_energy = [  0.11888649   0.41398338   1.12536143   1.12536143   1.16856988
   3.20940818   3.22490184   3.22490184   8.3845591    8.3845591
   9.34825851  29.76798022 110.04369154]
beta-B3g nocc = 0
   mo_energy = [  0.11888649   0.41398338   1.12536143   1.12536143   1.16856988
   3.20940818   3.22490184   3.22490184   8.3845591    8.3845591
   9.34825851  29.76798022 110.04369154]
beta-Au nocc = 0
   mo_energy = [ 0.36893049  1.17096211  3.21518091  9.06279731 36.59612377]
beta-B1u nocc = 0
   mo_energy = [-2.63375498e-01  3.24171378e-02  1.56002831e-01  3.68930488e-01
  3.68930488e-01  6.21422406e-01  1.17096211e+00  1.17096211e+00
  2.16297378e+00  3.21518091e+00  3.21518091e+00  7.03864985e+00
  9.06279731e+00  9.06279731e+00  2.19287852e+01  3.65961238e+01
  3.65961238e+01  7.00769165e+01  2.30688512e+02]
beta-B2u nocc = 0
   mo_energy = [-2.63375498e-01  3.24171378e-02  1.56002831e-01  3.68930488e-01
  3.68930488e-01  6.21422406e-01  1.17096211e+00  1.17096211e+00
  2.16297378e+00  3.21518091e+00  3.21518091e+00  7.03864985e+00
  9.06279731e+00  9.06279731e+00  2.19287852e+01  3.65961238e+01
  3.65961238e+01  7.00769165e+01  2.30688512e+02]
beta-B3u nocc = 0
   mo_energy = [-2.63375498e-01  3.24171378e-02  1.56002831e-01  3.68930488e-01
  3.68930488e-01  6.21422406e-01  1.17096211e+00  1.17096211e+00
  2.16297378e+00  3.21518091e+00  3.21518091e+00  7.03864985e+00
  9.06279731e+00  9.06279731e+00  2.19287852e+01  3.65961238e+01
  3.65961238e+01  7.00769165e+01  2.30688512e+02]
multiplicity <S^2> = 3.75  2S+1 = 4
E1 = -73.18684554068398  Ecoul = 18.819890042547563
cycle= 1 E= -54.3669554981364  delta_E= -0.515  |g|= 0.182  |ddm|= 0.412
    CPU time for cycle= 1      0.34 sec, wall time      0.09 sec
diis-norm(errvec)=0.257165
diis-c [-0.06613364  1.        ]
alpha HOMO (B3u) = -0.616484470926753  LUMO (Ag) = 0.0273535584134694
alpha irrep_nelec = [2, 0, 0, 0, 0, 1, 1, 1]
beta  irrep_nelec = [2, 0, 0, 0, 0, 0, 0, 0]
alpha-Ag nocc = 2  HOMO = -1.23058276667072  LUMO = 0.0273535584134694
   mo_energy = [-1.58603803e+01 -1.23058277e+00  2.73535584e-02  1.17807650e-01
  1.17807650e-01  1.63831676e-01  3.98781632e-01  3.98781632e-01
  7.05348843e-01  1.11838889e+00  1.11838889e+00  1.12141160e+00
  1.12141160e+00  1.12141160e+00  2.74176824e+00  3.14395582e+00
  3.14395582e+00  3.20975045e+00  3.20975045e+00  3.20975045e+00
  8.35726082e+00  8.35726082e+00  8.35726082e+00  9.29839009e+00
  9.29839009e+00  1.06649375e+01  2.97435715e+01  2.97435715e+01
  3.76130318e+01  1.10036551e+02  1.10036551e+02  1.24836487e+02
  5.15136058e+02]
alpha-B1g nocc = 0
   mo_energy = [  0.11780765   0.39878163   1.11838889   1.1214116    1.1214116
   3.14395582   3.20975045   3.20975045   8.35726082   8.35726082
   9.29839009  29.74357152 110.0365506 ]
alpha-B2g nocc = 0
   mo_energy = [  0.11780765   0.39878163   1.11838889   1.1214116    1.1214116
   3.14395582   3.20975045   3.20975045   8.35726082   8.35726082
   9.29839009  29.74357152 110.0365506 ]
alpha-B3g nocc = 0
   mo_energy = [  0.11780765   0.39878163   1.11838889   1.1214116    1.1214116
   3.14395582   3.20975045   3.20975045   8.35726082   8.35726082
   9.29839009  29.74357152 110.0365506 ]
alpha-Au nocc = 0
   mo_energy = [ 0.36734912  1.15824424  3.1818077   9.02124226 36.57273982]
alpha-B1u nocc = 1  HOMO = -0.616484470926754  LUMO = 0.0315254978030886
   mo_energy = [-6.16484471e-01  3.15254978e-02  1.45269785e-01  3.67349122e-01
  3.67349122e-01  5.81287852e-01  1.15824424e+00  1.15824424e+00
  2.10587704e+00  3.18180770e+00  3.18180770e+00  6.99387109e+00
  9.02124226e+00  9.02124226e+00  2.19044707e+01  3.65727398e+01
  3.65727398e+01  7.00674518e+01  2.30685857e+02]
alpha-B2u nocc = 1  HOMO = -0.616484470926761  LUMO = 0.0315254978030986
   mo_energy = [-6.16484471e-01  3.15254978e-02  1.45269785e-01  3.67349122e-01
  3.67349122e-01  5.81287852e-01  1.15824424e+00  1.15824424e+00
  2.10587704e+00  3.18180770e+00  3.18180770e+00  6.99387109e+00
  9.02124226e+00  9.02124226e+00  2.19044707e+01  3.65727398e+01
  3.65727398e+01  7.00674518e+01  2.30685857e+02]
alpha-B3u nocc = 1  HOMO = -0.616484470926753  LUMO = 0.0315254978030928
   mo_energy = [-6.16484471e-01  3.15254978e-02  1.45269785e-01  3.67349122e-01
  3.67349122e-01  5.81287852e-01  1.15824424e+00  1.15824424e+00
  2.10587704e+00  3.18180770e+00  3.18180770e+00  6.99387109e+00
  9.02124226e+00  9.02124226e+00  2.19044707e+01  3.65727398e+01
  3.65727398e+01  7.00674518e+01  2.30685857e+02]
beta-Ag nocc = 2  HOMO = -0.847663482673721  LUMO = 0.0320681238508321
   mo_energy = [-1.57882100e+01 -8.47663483e-01  3.20681239e-02  1.19852557e-01
  1.19852557e-01  1.86313898e-01  4.27941621e-01  4.27941621e-01
  7.63495063e-01  1.12929634e+00  1.12929634e+00  1.12929634e+00
  1.21857112e+00  1.21857112e+00  2.82845357e+00  3.24004041e+00
  3.24004041e+00  3.24004041e+00  3.27615556e+00  3.27615556e+00
  8.41188510e+00  8.41188510e+00  8.41188510e+00  9.39836310e+00
  9.39836310e+00  1.07335482e+01  2.97923936e+01  2.97923936e+01
  3.76443490e+01  1.10050833e+02  1.10050833e+02  1.24846682e+02
  5.15138670e+02]
beta-B1g nocc = 0
   mo_energy = [  0.11985256   0.42794162   1.12929634   1.12929634   1.21857112
   3.24004041   3.24004041   3.27615556   8.4118851    8.4118851
   9.3983631   29.79239364 110.05083257]
beta-B2g nocc = 0
   mo_energy = [  0.11985256   0.42794162   1.12929634   1.12929634   1.21857112
   3.24004041   3.24004041   3.27615556   8.4118851    8.4118851
   9.3983631   29.79239364 110.05083257]
beta-B3g nocc = 0
   mo_energy = [  0.11985256   0.42794162   1.12929634   1.12929634   1.21857112
   3.24004041   3.24004041   3.27615556   8.4118851    8.4118851
   9.3983631   29.79239364 110.05083257]
beta-Au nocc = 0
   mo_energy = [ 0.37048624  1.18355602  3.24860769  9.10444545 36.61951063]
beta-B1u nocc = 0
   mo_energy = [2.56657911e-02 5.74493531e-02 1.88973243e-01 3.70486237e-01
 3.70486237e-01 6.75942583e-01 1.18355602e+00 1.18355602e+00
 2.22316288e+00 3.24860769e+00 3.24860769e+00 7.08363228e+00
 9.10444545e+00 9.10444545e+00 2.19531071e+01 3.66195106e+01
 3.66195106e+01 7.00863818e+01 2.30691168e+02]
beta-B2u nocc = 0
   mo_energy = [2.56657911e-02 5.74493531e-02 1.88973243e-01 3.70486237e-01
 3.70486237e-01 6.75942583e-01 1.18355602e+00 1.18355602e+00
 2.22316288e+00 3.24860769e+00 3.24860769e+00 7.08363228e+00
 9.10444545e+00 9.10444545e+00 2.19531071e+01 3.66195106e+01
 3.66195106e+01 7.00863818e+01 2.30691168e+02]
beta-B3u nocc = 0
   mo_energy = [2.56657911e-02 5.74493531e-02 1.88973243e-01 3.70486237e-01
 3.70486237e-01 6.75942583e-01 1.18355602e+00 1.18355602e+00
 2.22316288e+00 3.24860769e+00 3.24860769e+00 7.08363228e+00
 9.10444545e+00 9.10444545e+00 2.19531071e+01 3.66195106e+01
 3.66195106e+01 7.00863818e+01 2.30691168e+02]
multiplicity <S^2> = 3.7507309  2S+1 = 4.0003654
E1 = -73.97054293009876  Ecoul = 19.571093682073062
cycle= 2 E= -54.3994492480257  delta_E= -0.0325  |g|= 0.074  |ddm|= 0.171
    CPU time for cycle= 2      0.33 sec, wall time      0.08 sec
diis-norm(errvec)=0.104662
diis-c [-0.01074026  0.05850277  0.94149723]
alpha HOMO (B1u) = -0.566782357201673  LUMO (Ag) = 0.0300130389188305
alpha irrep_nelec = [2, 0, 0, 0, 0, 1, 1, 1]
beta  irrep_nelec = [2, 0, 0, 0, 0, 0, 0, 0]
alpha-Ag nocc = 2  HOMO = -1.16337066147913  LUMO = 0.0300130389188305
   mo_energy = [-1.56714109e+01 -1.16337066e+00  3.00130389e-02  1.19007356e-01
  1.19007356e-01  1.74535902e-01  4.11494150e-01  4.11494150e-01
  7.32939561e-01  1.12842769e+00  1.12842769e+00  1.12842769e+00
  1.15242580e+00  1.15242580e+00  2.81012324e+00  3.20975032e+00
  3.20975032e+00  3.24073091e+00  3.24073091e+00  3.24073091e+00
  8.43628838e+00  8.43628838e+00  8.43628838e+00  9.41798433e+00
  9.41798433e+00  1.07960312e+01  2.99125783e+01  2.99125783e+01
  3.77885485e+01  1.10232424e+02  1.10232424e+02  1.25032414e+02
  5.15338298e+02]
alpha-B1g nocc = 0
   mo_energy = [  0.11900736   0.41149415   1.12842769   1.12842769   1.1524258
   3.20975032   3.24073091   3.24073091   8.43628838   8.43628838
   9.41798433  29.91257828 110.23242416]
alpha-B2g nocc = 0
   mo_energy = [  0.11900736   0.41149415   1.12842769   1.12842769   1.1524258
   3.20975032   3.24073091   3.24073091   8.43628838   8.43628838
   9.41798433  29.91257828 110.23242416]
alpha-B3g nocc = 0
   mo_energy = [  0.11900736   0.41149415   1.12842769   1.12842769   1.1524258
   3.20975032   3.24073091   3.24073091   8.43628838   8.43628838
   9.41798433  29.91257828 110.23242416]
alpha-Au nocc = 0
   mo_energy = [ 0.36957199  1.17431599  3.2302171   9.12452291 36.74466357]
alpha-B1u nocc = 1  HOMO = -0.566782357201673  LUMO = 0.0318925759800317
   mo_energy = [-5.66782357e-01  3.18925760e-02  1.49717066e-01  3.69571989e-01
  3.69571989e-01  6.03034304e-01  1.17431599e+00  1.17431599e+00
  2.16822420e+00  3.23021710e+00  3.23021710e+00  7.11023358e+00
  9.12452291e+00  9.12452291e+00  2.20663743e+01  3.67446636e+01
  3.67446636e+01  7.02573588e+01  2.30886824e+02]
alpha-B2u nocc = 1  HOMO = -0.566782357201678  LUMO = 0.0318925759800295
   mo_energy = [-5.66782357e-01  3.18925760e-02  1.49717066e-01  3.69571989e-01
  3.69571989e-01  6.03034304e-01  1.17431599e+00  1.17431599e+00
  2.16822420e+00  3.23021710e+00  3.23021710e+00  7.11023358e+00
  9.12452291e+00  9.12452291e+00  2.20663743e+01  3.67446636e+01
  3.67446636e+01  7.02573588e+01  2.30886824e+02]
alpha-B3u nocc = 1  HOMO = -0.566782357201675  LUMO = 0.031892575980022
   mo_energy = [-5.66782357e-01  3.18925760e-02  1.49717066e-01  3.69571989e-01
  3.69571989e-01  6.03034304e-01  1.17431599e+00  1.17431599e+00
  2.16822420e+00  3.23021710e+00  3.23021710e+00  7.11023358e+00
  9.12452291e+00  9.12452291e+00  2.20663743e+01  3.67446636e+01
  3.67446636e+01  7.02573588e+01  2.30886824e+02]
beta-Ag nocc = 2  HOMO = -0.750491610741664  LUMO = 0.032915566132465
   mo_energy = [-1.55889036e+01 -7.50491611e-01  3.29155661e-02  1.20063034e-01
  1.20063034e-01  1.92813046e-01  4.32771728e-01  4.32771728e-01
  7.93390339e-01  1.13372268e+00  1.13372268e+00  1.13372268e+00
  1.25038803e+00  1.25038803e+00  2.90941044e+00  3.26878343e+00
  3.26878343e+00  3.26878343e+00  3.35937733e+00  3.35937733e+00
  8.49619401e+00  8.49619401e+00  8.49619401e+00  9.53496849e+00
  9.53496849e+00  1.08759962e+01  2.99700847e+01  2.99700847e+01
  3.78247267e+01  1.10249030e+02  1.10249030e+02  1.25043625e+02
  5.15340724e+02]
beta-B1g nocc = 0
   mo_energy = [  0.12006303   0.43277173   1.13372268   1.13372268   1.25038803
   3.26878343   3.26878343   3.35937733   8.49619401   8.49619401
   9.53496849  29.97008475 110.24902955]
beta-B2g nocc = 0
   mo_energy = [  0.12006303   0.43277173   1.13372268   1.13372268   1.25038803
   3.26878343   3.26878343   3.35937733   8.49619401   8.49619401
   9.53496849  29.97008475 110.24902955]
beta-B3g nocc = 0
   mo_energy = [  0.12006303   0.43277173   1.13372268   1.13372268   1.25038803
   3.26878343   3.26878343   3.35937733   8.49619401   8.49619401
   9.53496849  29.97008475 110.24902955]
beta-Au nocc = 0
   mo_energy = [ 0.37128664  1.19462349  3.29880597  9.21976752 36.79981462]
beta-B1u nocc = 0
   mo_energy = [2.93726323e-02 9.09041071e-02 2.23123428e-01 3.71286639e-01
 3.71286639e-01 7.21961508e-01 1.19462349e+00 1.19462349e+00
 2.30598314e+00 3.29880597e+00 3.29880597e+00 7.21499924e+00
 9.21976752e+00 9.21976752e+00 2.21234289e+01 3.67998146e+01
 3.67998146e+01 7.02791680e+01 2.30892448e+02]
beta-B2u nocc = 0
   mo_energy = [2.93726323e-02 9.09041071e-02 2.23123428e-01 3.71286639e-01
 3.71286639e-01 7.21961508e-01 1.19462349e+00 1.19462349e+00
 2.30598314e+00 3.29880597e+00 3.29880597e+00 7.21499924e+00
 9.21976752e+00 9.21976752e+00 2.21234289e+01 3.67998146e+01
 3.67998146e+01 7.02791680e+01 2.30892448e+02]
beta-B3u nocc = 0
   mo_energy = [2.93726323e-02 9.09041071e-02 2.23123428e-01 3.71286639e-01
 3.71286639e-01 7.21961508e-01 1.19462349e+00 1.19462349e+00
 2.30598314e+00 3.29880597e+00 3.29880597e+00 7.21499924e+00
 9.21976752e+00 9.21976752e+00 2.21234289e+01 3.67998146e+01
 3.67998146e+01 7.02791680e+01 2.30892448e+02]
multiplicity <S^2> = 3.7533321  2S+1 = 4.0016657
E1 = -73.91604097473912  Ecoul = 19.513082615848592
cycle= 3 E= -54.4029583588905  delta_E= -0.00351  |g|= 0.0254  |ddm|= 0.0813
    CPU time for cycle= 3      0.33 sec, wall time      0.08 sec
diis-norm(errvec)=0.0358638
diis-c [-4.72146515e-04 -8.82649327e-02 -2.47649778e-01  1.33591471e+00]
alpha HOMO (B1u) = -0.568771431998776  LUMO (Ag) = 0.0306928064942747
alpha irrep_nelec = [2, 0, 0, 0, 0, 1, 1, 1]
beta  irrep_nelec = [2, 0, 0, 0, 0, 0, 0, 0]
alpha-Ag nocc = 2  HOMO = -1.1600439127138  LUMO = 0.0306928064942747
   mo_energy = [-1.56682787e+01 -1.16004391e+00  3.06928065e-02  1.19378581e-01
  1.19378581e-01  1.77142733e-01  4.14905279e-01  4.14905279e-01
  7.37526401e-01  1.13049134e+00  1.13049134e+00  1.13049134e+00
  1.15742344e+00  1.15742344e+00  2.81664733e+00  3.21449498e+00
  3.21449498e+00  3.24693625e+00  3.24693625e+00  3.24693625e+00
  8.44471180e+00  8.44471180e+00  8.44471180e+00  9.42474501e+00
  9.42474501e+00  1.08034872e+01  2.99197742e+01  2.99197742e+01
  3.77943166e+01  1.10235774e+02  1.10235774e+02  1.25033227e+02
  5.15331460e+02]
alpha-B1g nocc = 0
   mo_energy = [  0.11937858   0.41490528   1.13049134   1.13049134   1.15742344
   3.21449498   3.24693625   3.24693625   8.4447118    8.4447118
   9.42474501  29.91977423 110.23577386]
alpha-B2g nocc = 0
   mo_energy = [  0.11937858   0.41490528   1.13049134   1.13049134   1.15742344
   3.21449498   3.24693625   3.24693625   8.4447118    8.4447118
   9.42474501  29.91977423 110.23577386]
alpha-B3g nocc = 0
   mo_energy = [  0.11937858   0.41490528   1.13049134   1.13049134   1.15742344
   3.21449498   3.24693625   3.24693625   8.4447118    8.4447118
   9.42474501  29.91977423 110.23577386]
alpha-Au nocc = 0
   mo_energy = [ 0.37028054  1.17834879  3.23701884  9.13204245 36.752373  ]
alpha-B1u nocc = 1  HOMO = -0.568771431998776  LUMO = 0.0319516749512368
   mo_energy = [-5.68771432e-01  3.19516750e-02  1.50338824e-01  3.70280541e-01
  3.70280541e-01  6.05169083e-01  1.17834879e+00  1.17834879e+00
  2.17256968e+00  3.23701884e+00  3.23701884e+00  7.11643678e+00
  9.13204245e+00  9.13204245e+00  2.20730136e+01  3.67523730e+01
  3.67523730e+01  7.02614167e+01  2.30884795e+02]
alpha-B2u nocc = 1  HOMO = -0.568771431998781  LUMO = 0.0319516749512455
   mo_energy = [-5.68771432e-01  3.19516750e-02  1.50338824e-01  3.70280541e-01
  3.70280541e-01  6.05169083e-01  1.17834879e+00  1.17834879e+00
  2.17256968e+00  3.23701884e+00  3.23701884e+00  7.11643678e+00
  9.13204245e+00  9.13204245e+00  2.20730136e+01  3.67523730e+01
  3.67523730e+01  7.02614167e+01  2.30884795e+02]
alpha-B3u nocc = 1  HOMO = -0.568771431998784  LUMO = 0.0319516749512419
   mo_energy = [-5.68771432e-01  3.19516750e-02  1.50338824e-01  3.70280541e-01
  3.70280541e-01  6.05169083e-01  1.17834879e+00  1.17834879e+00
  2.17256968e+00  3.23701884e+00  3.23701884e+00  7.11643678e+00
  9.13204245e+00  9.13204245e+00  2.20730136e+01  3.67523730e+01
  3.67523730e+01  7.02614167e+01  2.30884795e+02]
beta-Ag nocc = 2  HOMO = -0.728530541284819  LUMO = 0.0332399193456052
   mo_energy = [-1.55819833e+01 -7.28530541e-01  3.32399193e-02  1.20094718e-01
  1.20094718e-01  1.95145120e-01  4.33394303e-01  4.33394303e-01
  8.01702204e-01  1.13476173e+00  1.13476173e+00  1.13476173e+00
  1.25499590e+00  1.25499590e+00  2.92310617e+00  3.27417677e+00
  3.27417677e+00  3.27417677e+00  3.37074320e+00  3.37074320e+00
  8.50692696e+00  8.50692696e+00  8.50692696e+00  9.54695536e+00
  9.54695536e+00  1.08887360e+01  2.99793492e+01  2.99793492e+01
  3.78328937e+01  1.10253129e+02  1.10253129e+02  1.25045580e+02
  5.15334527e+02]
beta-B1g nocc = 0
   mo_energy = [  0.12009472   0.4333943    1.13476173   1.13476173   1.2549959
   3.27417677   3.27417677   3.3707432    8.50692696   8.50692696
   9.54695536  29.97934923 110.25312861]
beta-B2g nocc = 0
   mo_energy = [  0.12009472   0.4333943    1.13476173   1.13476173   1.2549959
   3.27417677   3.27417677   3.3707432    8.50692696   8.50692696
   9.54695536  29.97934923 110.25312861]
beta-B3g nocc = 0
   mo_energy = [  0.12009472   0.4333943    1.13476173   1.13476173   1.2549959
   3.27417677   3.27417677   3.3707432    8.50692696   8.50692696
   9.54695536  29.97934923 110.25312861]
beta-Au nocc = 0
   mo_energy = [ 0.37146464  1.19670112  3.30664336  9.23188281 36.80963168]
beta-B1u nocc = 0
   mo_energy = [2.94567335e-02 9.31115992e-02 2.28307600e-01 3.71464638e-01
 3.71464638e-01 7.29387745e-01 1.19670112e+00 1.19670112e+00
 2.31492801e+00 3.30664336e+00 3.30664336e+00 7.22540102e+00
 9.23188281e+00 9.23188281e+00 2.21328246e+01 3.68096317e+01
 3.68096317e+01 7.02845703e+01 2.30891164e+02]
beta-B2u nocc = 0
   mo_energy = [2.94567335e-02 9.31115992e-02 2.28307600e-01 3.71464638e-01
 3.71464638e-01 7.29387745e-01 1.19670112e+00 1.19670112e+00
 2.31492801e+00 3.30664336e+00 3.30664336e+00 7.22540102e+00
 9.23188281e+00 9.23188281e+00 2.21328246e+01 3.68096317e+01
 3.68096317e+01 7.02845703e+01 2.30891164e+02]
beta-B3u nocc = 0
   mo_energy = [2.94567335e-02 9.31115992e-02 2.28307600e-01 3.71464638e-01
 3.71464638e-01 7.29387745e-01 1.19670112e+00 1.19670112e+00
 2.31492801e+00 3.30664336e+00 3.30664336e+00 7.22540102e+00
 9.23188281e+00 9.23188281e+00 2.21328246e+01 3.68096317e+01
 3.68096317e+01 7.02845703e+01 2.30891164e+02]
multiplicity <S^2> = 3.7565967  2S+1 = 4.003297
E1 = -73.9450786039481  Ecoul = 19.541271832215514
cycle= 4 E= -54.4038067717326  delta_E= -0.000848  |g|= 0.00573  |ddm|= 0.054
    CPU time for cycle= 4      0.34 sec, wall time      0.08 sec
diis-norm(errvec)=0.00810173
diis-c [-1.99190351e-05  8.99759815e-03  7.29169986e-02 -4.32837383e-01
  1.35092279e+00]
alpha HOMO (B1u) = -0.570832232352117  LUMO (Ag) = 0.0306168540226716
alpha irrep_nelec = [2, 0, 0, 0, 0, 1, 1, 1]
beta  irrep_nelec = [2, 0, 0, 0, 0, 0, 0, 0]
alpha-Ag nocc = 2  HOMO = -1.16281334599327  LUMO = 0.0306168540226716
   mo_energy = [-1.56711281e+01 -1.16281335e+00  3.06168540e-02  1.19348186e-01
  1.19348186e-01  1.76878390e-01  4.14803836e-01  4.14803836e-01
  7.36720256e-01  1.13031525e+00  1.13031525e+00  1.13031525e+00
  1.15675880e+00  1.15675880e+00  2.81458345e+00  3.21228336e+00
  3.21228336e+00  3.24610202e+00  3.24610202e+00  3.24610202e+00
  8.44255081e+00  8.44255081e+00  8.44255081e+00  9.42204628e+00
  9.42204628e+00  1.08008566e+01  2.99178270e+01  2.99178270e+01
  3.77921533e+01  1.10234341e+02  1.10234341e+02  1.25031464e+02
  5.15329861e+02]
alpha-B1g nocc = 0
   mo_energy = [  0.11934819   0.41480384   1.13031525   1.13031525   1.1567588
   3.21228336   3.24610202   3.24610202   8.44255081   8.44255081
   9.42204628  29.91782696 110.23434105]
alpha-B2g nocc = 0
   mo_energy = [  0.11934819   0.41480384   1.13031525   1.13031525   1.1567588
   3.21228336   3.24610202   3.24610202   8.44255081   8.44255081
   9.42204628  29.91782696 110.23434105]
alpha-B3g nocc = 0
   mo_energy = [  0.11934819   0.41480384   1.13031525   1.13031525   1.1567588
   3.21228336   3.24610202   3.24610202   8.44255081   8.44255081
   9.42204628  29.91782696 110.23434105]
alpha-Au nocc = 0
   mo_energy = [ 0.37021944  1.17805781  3.23568182  9.12942057 36.7503681 ]
alpha-B1u nocc = 1  HOMO = -0.570832232352117  LUMO = 0.0319183189258772
   mo_energy = [-5.70832232e-01  3.19183189e-02  1.50015373e-01  3.70219441e-01
  3.70219441e-01  6.04150659e-01  1.17805781e+00  1.17805781e+00
  2.17064109e+00  3.23568182e+00  3.23568182e+00  7.11410199e+00
  9.12942057e+00  9.12942057e+00  2.20709112e+01  3.67503681e+01
  3.67503681e+01  7.02596864e+01  2.30883225e+02]
alpha-B2u nocc = 1  HOMO = -0.570832232352122  LUMO = 0.0319183189258709
   mo_energy = [-5.70832232e-01  3.19183189e-02  1.50015373e-01  3.70219441e-01
  3.70219441e-01  6.04150659e-01  1.17805781e+00  1.17805781e+00
  2.17064109e+00  3.23568182e+00  3.23568182e+00  7.11410199e+00
  9.12942057e+00  9.12942057e+00  2.20709112e+01  3.67503681e+01
  3.67503681e+01  7.02596864e+01  2.30883225e+02]
alpha-B3u nocc = 1  HOMO = -0.570832232352121  LUMO = 0.0319183189258798
   mo_energy = [-5.70832232e-01  3.19183189e-02  1.50015373e-01  3.70219441e-01
  3.70219441e-01  6.04150659e-01  1.17805781e+00  1.17805781e+00
  2.17064109e+00  3.23568182e+00  3.23568182e+00  7.11410199e+00
  9.12942057e+00  9.12942057e+00  2.20709112e+01  3.67503681e+01
  3.67503681e+01  7.02596864e+01  2.30883225e+02]
beta-Ag nocc = 2  HOMO = -0.726287411756433  LUMO = 0.0332580332745639
   mo_energy = [-1.55818744e+01 -7.26287412e-01  3.32580333e-02  1.20069922e-01
  1.20069922e-01  1.95248612e-01  4.32969748e-01  4.32969748e-01
  8.01842520e-01  1.13447023e+00  1.13447023e+00  1.13447023e+00
  1.25375084e+00  1.25375084e+00  2.92281345e+00  3.27302289e+00
  3.27302289e+00  3.27302289e+00  3.36949464e+00  3.36949464e+00
  8.50505004e+00  8.50505004e+00  8.50505004e+00  9.54543794e+00
  9.54543794e+00  1.08878823e+01  2.99779000e+01  2.99779000e+01
  3.78320185e+01  1.10252123e+02  1.10252123e+02  1.25044839e+02
  5.15333663e+02]
beta-B1g nocc = 0
   mo_energy = [  0.12006992   0.43296975   1.13447023   1.13447023   1.25375084
   3.27302289   3.27302289   3.36949464   8.50505004   8.50505004
   9.54543794  29.97790001 110.25212257]
beta-B2g nocc = 0
   mo_energy = [  0.12006992   0.43296975   1.13447023   1.13447023   1.25375084
   3.27302289   3.27302289   3.36949464   8.50505004   8.50505004
   9.54543794  29.97790001 110.25212257]
beta-B3g nocc = 0
   mo_energy = [  0.12006992   0.43296975   1.13447023   1.13447023   1.25375084
   3.27302289   3.27302289   3.36949464   8.50505004   8.50505004
   9.54543794  29.97790001 110.25212257]
beta-Au nocc = 0
   mo_energy = [ 0.37139127  1.19603557  3.3051519   9.23012883 36.80814027]
beta-B1u nocc = 0
   mo_energy = [2.93855529e-02 9.22581762e-02 2.27799135e-01 3.71391273e-01
 3.71391273e-01 7.29141247e-01 1.19603557e+00 1.19603557e+00
 2.31379597e+00 3.30515190e+00 3.30515190e+00 7.22398381e+00
 9.23012883e+00 9.23012883e+00 2.21315730e+01 3.68081403e+01
 3.68081403e+01 7.02836675e+01 2.30890356e+02]
beta-B2u nocc = 0
   mo_energy = [2.93855529e-02 9.22581762e-02 2.27799135e-01 3.71391273e-01
 3.71391273e-01 7.29141247e-01 1.19603557e+00 1.19603557e+00
 2.31379597e+00 3.30515190e+00 3.30515190e+00 7.22398381e+00
 9.23012883e+00 9.23012883e+00 2.21315730e+01 3.68081403e+01
 3.68081403e+01 7.02836675e+01 2.30890356e+02]
beta-B3u nocc = 0
   mo_energy = [2.93855529e-02 9.22581762e-02 2.27799135e-01 3.71391273e-01
 3.71391273e-01 7.29141247e-01 1.19603557e+00 1.19603557e+00
 2.31379597e+00 3.30515190e+00 3.30515190e+00 7.22398381e+00
 9.23012883e+00 9.23012883e+00 2.21315730e+01 3.68081403e+01
 3.68081403e+01 7.02836675e+01 2.30890356e+02]
multiplicity <S^2> = 3.7577545  2S+1 = 4.0038754
E1 = -73.95345546836266  Ecoul = 19.54961393458012
cycle= 5 E= -54.4038415337825  delta_E= -3.48e-05  |g|= 0.000775  |ddm|= 0.0072
    CPU time for cycle= 5      0.34 sec, wall time      0.08 sec
diis-norm(errvec)=0.00109593
diis-c [-1.68603713e-07  5.24362024e-04 -1.04034846e-02  6.38313376e-02
 -3.10812486e-01  1.25686027e+00]
alpha HOMO (B3u) = -0.570903459588344  LUMO (Ag) = 0.0306030561165424
alpha irrep_nelec = [2, 0, 0, 0, 0, 1, 1, 1]
beta  irrep_nelec = [2, 0, 0, 0, 0, 0, 0, 0]
alpha-Ag nocc = 2  HOMO = -1.16315025654993  LUMO = 0.0306030561165424
   mo_energy = [-1.56711493e+01 -1.16315026e+00  3.06030561e-02  1.19342409e-01
  1.19342409e-01  1.76821112e-01  4.14769331e-01  4.14769331e-01
  7.36605967e-01  1.13028514e+00  1.13028514e+00  1.13028514e+00
  1.15675991e+00  1.15675991e+00  2.81442747e+00  3.21220461e+00
  3.21220461e+00  3.24603120e+00  3.24603120e+00  3.24603120e+00
  8.44249293e+00  8.44249293e+00  8.44249293e+00  9.42205838e+00
  9.42205838e+00  1.08008144e+01  2.99179870e+01  2.99179870e+01
  3.77922096e+01  1.10234462e+02  1.10234462e+02  1.25031487e+02
  5.15329787e+02]
alpha-B1g nocc = 0
   mo_energy = [  0.11934241   0.41476933   1.13028514   1.13028514   1.15675991
   3.21220461   3.2460312    3.2460312    8.44249293   8.44249293
   9.42205838  29.91798698 110.23446195]
alpha-B2g nocc = 0
   mo_energy = [  0.11934241   0.41476933   1.13028514   1.13028514   1.15675991
   3.21220461   3.2460312    3.2460312    8.44249293   8.44249293
   9.42205838  29.91798698 110.23446195]
alpha-B3g nocc = 0
   mo_energy = [  0.11934241   0.41476933   1.13028514   1.13028514   1.15675991
   3.21220461   3.2460312    3.2460312    8.44249293   8.44249293
   9.42205838  29.91798698 110.23446195]
alpha-Au nocc = 0
   mo_energy = [ 0.37020884  1.1780165   3.23562758  9.12939373 36.750542  ]
alpha-B1u nocc = 1  HOMO = -0.570903459588347  LUMO = 0.0319194234226321
   mo_energy = [-5.70903460e-01  3.19194234e-02  1.50016327e-01  3.70208836e-01
  3.70208836e-01  6.04111283e-01  1.17801650e+00  1.17801650e+00
  2.17060276e+00  3.23562758e+00  3.23562758e+00  7.11412956e+00
  9.12939373e+00  9.12939373e+00  2.20710069e+01  3.67505420e+01
  3.67505420e+01  7.02597765e+01  2.30883228e+02]
alpha-B2u nocc = 1  HOMO = -0.570903459588345  LUMO = 0.0319194234226194
   mo_energy = [-5.70903460e-01  3.19194234e-02  1.50016327e-01  3.70208836e-01
  3.70208836e-01  6.04111283e-01  1.17801650e+00  1.17801650e+00
  2.17060276e+00  3.23562758e+00  3.23562758e+00  7.11412956e+00
  9.12939373e+00  9.12939373e+00  2.20710069e+01  3.67505420e+01
  3.67505420e+01  7.02597765e+01  2.30883228e+02]
alpha-B3u nocc = 1  HOMO = -0.570903459588344  LUMO = 0.0319194234226339
   mo_energy = [-5.70903460e-01  3.19194234e-02  1.50016327e-01  3.70208836e-01
  3.70208836e-01  6.04111283e-01  1.17801650e+00  1.17801650e+00
  2.17060276e+00  3.23562758e+00  3.23562758e+00  7.11412956e+00
  9.12939373e+00  9.12939373e+00  2.20710069e+01  3.67505420e+01
  3.67505420e+01  7.02597765e+01  2.30883228e+02]
beta-Ag nocc = 2  HOMO = -0.726044563488816  LUMO = 0.0332608501641454
   mo_energy = [-1.55815046e+01 -7.26044563e-01  3.32608502e-02  1.20067679e-01
  1.20067679e-01  1.95266875e-01  4.32929107e-01  4.32929107e-01
  8.01895741e-01  1.13443796e+00  1.13443796e+00  1.13443796e+00
  1.25364864e+00  1.25364864e+00  2.92292453e+00  3.27290701e+00
  3.27290701e+00  3.27290701e+00  3.36951199e+00  3.36951199e+00
  8.50501487e+00  8.50501487e+00  8.50501487e+00  9.54558416e+00
  9.54558416e+00  1.08880957e+01  2.99780857e+01  2.99780857e+01
  3.78322657e+01  1.10252290e+02  1.10252290e+02  1.25045028e+02
  5.15333716e+02]
beta-B1g nocc = 0
   mo_energy = [  0.12006768   0.43292911   1.13443796   1.13443796   1.25364864
   3.27290701   3.27290701   3.36951199   8.50501487   8.50501487
   9.54558416  29.97808575 110.25229002]
beta-B2g nocc = 0
   mo_energy = [  0.12006768   0.43292911   1.13443796   1.13443796   1.25364864
   3.27290701   3.27290701   3.36951199   8.50501487   8.50501487
   9.54558416  29.97808575 110.25229002]
beta-B3g nocc = 0
   mo_energy = [  0.12006768   0.43292911   1.13443796   1.13443796   1.25364864
   3.27290701   3.27290701   3.36951199   8.50501487   8.50501487
   9.54558416  29.97808575 110.25229002]
beta-Au nocc = 0
   mo_energy = [ 0.37138442  1.19596555  3.30504875  9.23020967 36.80835325]
beta-B1u nocc = 0
   mo_energy = [2.93800862e-02 9.22084256e-02 2.27810916e-01 3.71384418e-01
 3.71384418e-01 7.29189753e-01 1.19596555e+00 1.19596555e+00
 2.31382529e+00 3.30504875e+00 3.30504875e+00 7.22407432e+00
 9.23020967e+00 9.23020967e+00 2.21317530e+01 3.68083532e+01
 3.68083532e+01 7.02838696e+01 2.30890484e+02]
beta-B2u nocc = 0
   mo_energy = [2.93800862e-02 9.22084256e-02 2.27810916e-01 3.71384418e-01
 3.71384418e-01 7.29189753e-01 1.19596555e+00 1.19596555e+00
 2.31382529e+00 3.30504875e+00 3.30504875e+00 7.22407432e+00
 9.23020967e+00 9.23020967e+00 2.21317530e+01 3.68083532e+01
 3.68083532e+01 7.02838696e+01 2.30890484e+02]
beta-B3u nocc = 0
   mo_energy = [2.93800862e-02 9.22084256e-02 2.27810916e-01 3.71384418e-01
 3.71384418e-01 7.29189753e-01 1.19596555e+00 1.19596555e+00
 2.31382529e+00 3.30504875e+00 3.30504875e+00 7.22407432e+00
 9.23020967e+00 9.23020967e+00 2.21317530e+01 3.68083532e+01
 3.68083532e+01 7.02838696e+01 2.30890484e+02]
multiplicity <S^2> = 3.7578947  2S+1 = 4.0039454
E1 = -73.95319750647691  Ecoul = 19.549355507935495
cycle= 6 E= -54.4038419985414  delta_E= -4.65e-07  |g|= 4.9e-05  |ddm|= 0.00219
    CPU time for cycle= 6      0.33 sec, wall time      0.08 sec
diis-norm(errvec)=6.93167e-05
diis-c [-7.33359277e-10 -8.01351211e-05  8.38179582e-04 -4.97250438e-03
  3.17491529e-02 -1.72735717e-01  1.14520102e+00]
alpha HOMO (B2u) = -0.570895386499063  LUMO (Ag) = 0.0306021505465296
alpha irrep_nelec = [2, 0, 0, 0, 0, 1, 1, 1]
beta  irrep_nelec = [2, 0, 0, 0, 0, 0, 0, 0]
alpha-Ag nocc = 2  HOMO = -1.16316262048341  LUMO = 0.0306021505465296
   mo_energy = [-1.56711377e+01 -1.16316262e+00  3.06021505e-02  1.19341917e-01
  1.19341917e-01  1.76818142e-01  4.14767653e-01  4.14767653e-01
  7.36602288e-01  1.13028398e+00  1.13028398e+00  1.13028398e+00
  1.15676487e+00  1.15676487e+00  2.81442583e+00  3.21221045e+00
  3.21221045e+00  3.24603362e+00  3.24603362e+00  3.24603362e+00
  8.44250131e+00  8.44250131e+00  8.44250131e+00  9.42206730e+00
  9.42206730e+00  1.08008184e+01  2.99179936e+01  2.99179936e+01
  3.77922170e+01  1.10234474e+02  1.10234474e+02  1.25031505e+02
  5.15329827e+02]
alpha-B1g nocc = 0
   mo_energy = [  0.11934192   0.41476765   1.13028398   1.13028398   1.15676487
   3.21221045   3.24603362   3.24603362   8.44250131   8.44250131
   9.4220673   29.91799364 110.23447409]
alpha-B2g nocc = 0
   mo_energy = [  0.11934192   0.41476765   1.13028398   1.13028398   1.15676487
   3.21221045   3.24603362   3.24603362   8.44250131   8.44250131
   9.4220673   29.91799364 110.23447409]
alpha-B3g nocc = 0
   mo_energy = [  0.11934192   0.41476765   1.13028398   1.13028398   1.15676487
   3.21221045   3.24603362   3.24603362   8.44250131   8.44250131
   9.4220673   29.91799364 110.23447409]
alpha-Au nocc = 0
   mo_energy = [ 0.37020809  1.17801631  3.2356333   9.12940208 36.75054727]
alpha-B1u nocc = 1  HOMO = -0.570895386499066  LUMO = 0.0319195881139889
   mo_energy = [-5.70895386e-01  3.19195881e-02  1.50017686e-01  3.70208086e-01
  3.70208086e-01  6.04115505e-01  1.17801631e+00  1.17801631e+00
  2.17061245e+00  3.23563330e+00  3.23563330e+00  7.11413935e+00
  9.12940208e+00  9.12940208e+00  2.20710147e+01  3.67505473e+01
  3.67505473e+01  7.02597875e+01  2.30883254e+02]
alpha-B2u nocc = 1  HOMO = -0.570895386499063  LUMO = 0.0319195881139817
   mo_energy = [-5.70895386e-01  3.19195881e-02  1.50017686e-01  3.70208086e-01
  3.70208086e-01  6.04115505e-01  1.17801631e+00  1.17801631e+00
  2.17061245e+00  3.23563330e+00  3.23563330e+00  7.11413935e+00
  9.12940208e+00  9.12940208e+00  2.20710147e+01  3.67505473e+01
  3.67505473e+01  7.02597875e+01  2.30883254e+02]
alpha-B3u nocc = 1  HOMO = -0.570895386499068  LUMO = 0.0319195881139847
   mo_energy = [-5.70895386e-01  3.19195881e-02  1.50017686e-01  3.70208086e-01
  3.70208086e-01  6.04115505e-01  1.17801631e+00  1.17801631e+00
  2.17061245e+00  3.23563330e+00  3.23563330e+00  7.11413935e+00
  9.12940208e+00  9.12940208e+00  2.20710147e+01  3.67505473e+01
  3.67505473e+01  7.02597875e+01  2.30883254e+02]
beta-Ag nocc = 2  HOMO = -0.726046788193456  LUMO = 0.0332608533658164
   mo_energy = [-1.55814989e+01 -7.26046788e-01  3.32608534e-02  1.20067714e-01
  1.20067714e-01  1.95266853e-01  4.32929649e-01  4.32929649e-01
  8.01896383e-01  1.13443766e+00  1.13443766e+00  1.13443766e+00
  1.25364989e+00  1.25364989e+00  2.92292943e+00  3.27290812e+00
  3.27290812e+00  3.27290812e+00  3.36951843e+00  3.36951843e+00
  8.50502333e+00  8.50502333e+00  8.50502333e+00  9.54559144e+00
  9.54559144e+00  1.08881023e+01  2.99780895e+01  2.99780895e+01
  3.78322732e+01  1.10252301e+02  1.10252301e+02  1.25045047e+02
  5.15333757e+02]
beta-B1g nocc = 0
   mo_energy = [  0.12006771   0.43292965   1.13443766   1.13443766   1.25364989
   3.27290812   3.27290812   3.36951843   8.50502333   8.50502333
   9.54559144  29.97808949 110.2523012 ]
beta-B2g nocc = 0
   mo_energy = [  0.12006771   0.43292965   1.13443766   1.13443766   1.25364989
   3.27290812   3.27290812   3.36951843   8.50502333   8.50502333
   9.54559144  29.97808949 110.2523012 ]
beta-B3g nocc = 0
   mo_energy = [  0.12006771   0.43292965   1.13443766   1.13443766   1.25364989
   3.27290812   3.27290812   3.36951843   8.50502333   8.50502333
   9.54559144  29.97808949 110.2523012 ]
beta-Au nocc = 0
   mo_energy = [ 0.37138441  1.1959657   3.3050522   9.23021946 36.808356  ]
beta-B1u nocc = 0
   mo_energy = [2.93802899e-02 9.22109865e-02 2.27812377e-01 3.71384411e-01
 3.71384411e-01 7.29191628e-01 1.19596570e+00 1.19596570e+00
 2.31382916e+00 3.30505220e+00 3.30505220e+00 7.22408055e+00
 9.23021946e+00 9.23021946e+00 2.21317598e+01 3.68083560e+01
 3.68083560e+01 7.02838800e+01 2.30890510e+02]
beta-B2u nocc = 0
   mo_energy = [2.93802899e-02 9.22109865e-02 2.27812377e-01 3.71384411e-01
 3.71384411e-01 7.29191628e-01 1.19596570e+00 1.19596570e+00
 2.31382916e+00 3.30505220e+00 3.30505220e+00 7.22408055e+00
 9.23021946e+00 9.23021946e+00 2.21317598e+01 3.68083560e+01
 3.68083560e+01 7.02838800e+01 2.30890510e+02]
beta-B3u nocc = 0
   mo_energy = [2.93802899e-02 9.22109865e-02 2.27812377e-01 3.71384411e-01
 3.71384411e-01 7.29191628e-01 1.19596570e+00 1.19596570e+00
 2.31382916e+00 3.30505220e+00 3.30505220e+00 7.22408055e+00
 9.23021946e+00 9.23021946e+00 2.21317598e+01 3.68083560e+01
 3.68083560e+01 7.02838800e+01 2.30890510e+02]
multiplicity <S^2> = 3.7578952  2S+1 = 4.0039457
E1 = -73.9531539010399  Ecoul = 19.54931190046459
cycle= 7 E= -54.4038420005753  delta_E= -2.03e-09  |g|= 2.71e-06  |ddm|= 0.000118
    CPU time for cycle= 7      0.34 sec, wall time      0.09 sec
diis-norm(errvec)=3.83506e-06
diis-c [-4.89340997e-12  2.38697083e-06 -6.04809113e-05  3.73065349e-04
 -2.44645804e-03  1.38194246e-02 -1.22261099e-01  1.11057316e+00]
alpha HOMO (B1u) = -0.570894237918191  LUMO (Ag) = 0.0306020611086959
alpha irrep_nelec = [2, 0, 0, 0, 0, 1, 1, 1]
beta  irrep_nelec = [2, 0, 0, 0, 0, 0, 0, 0]
alpha-Ag nocc = 2  HOMO = -1.16316277762865  LUMO = 0.0306020611086959
   mo_energy = [-1.56711373e+01 -1.16316278e+00  3.06020611e-02  1.19341870e-01
  1.19341870e-01  1.76817949e-01  4.14767616e-01  4.14767616e-01
  7.36602172e-01  1.13028389e+00  1.13028389e+00  1.13028389e+00
  1.15676511e+00  1.15676511e+00  2.81442576e+00  3.21221065e+00
  3.21221065e+00  3.24603374e+00  3.24603374e+00  3.24603374e+00
  8.44250159e+00  8.44250159e+00  8.44250159e+00  9.42206763e+00
  9.42206763e+00  1.08008186e+01  2.99179941e+01  2.99179941e+01
  3.77922175e+01  1.10234475e+02  1.10234475e+02  1.25031506e+02
  5.15329828e+02]
alpha-B1g nocc = 0
   mo_energy = [  0.11934187   0.41476762   1.13028389   1.13028389   1.15676511
   3.21221065   3.24603374   3.24603374   8.44250159   8.44250159
   9.42206763  29.91799411 110.23447483]
alpha-B2g nocc = 0
   mo_energy = [  0.11934187   0.41476762   1.13028389   1.13028389   1.15676511
   3.21221065   3.24603374   3.24603374   8.44250159   8.44250159
   9.42206763  29.91799411 110.23447483]
[...]
beta-B1u nocc = 0
   mo_energy = [2.93803265e-02 9.22112989e-02 2.27812333e-01 3.71384417e-01
 3.71384417e-01 7.29191782e-01 1.19596573e+00 1.19596573e+00
 2.31382953e+00 3.30505246e+00 3.30505246e+00 7.22408123e+00
 9.23022008e+00 9.23022008e+00 2.21317607e+01 3.68083568e+01
 3.68083568e+01 7.02838812e+01 2.30890512e+02]
beta-B2u nocc = 0
   mo_energy = [2.93803265e-02 9.22112989e-02 2.27812333e-01 3.71384417e-01
 3.71384417e-01 7.29191782e-01 1.19596573e+00 1.19596573e+00
 2.31382953e+00 3.30505246e+00 3.30505246e+00 7.22408123e+00
 9.23022008e+00 9.23022008e+00 2.21317607e+01 3.68083568e+01
 3.68083568e+01 7.02838812e+01 2.30890512e+02]
beta-B3u nocc = 0
   mo_energy = [2.93803265e-02 9.22112989e-02 2.27812333e-01 3.71384417e-01
 3.71384417e-01 7.29191782e-01 1.19596573e+00 1.19596573e+00
 2.31382953e+00 3.30505246e+00 3.30505246e+00 7.22408123e+00
 9.23022008e+00 9.23022008e+00 2.21317607e+01 3.68083568e+01
 3.68083568e+01 7.02838812e+01 2.30890512e+02]
multiplicity <S^2> = 3.7578951  2S+1 = 4.0039456
E1 = -73.95315779903322  Ecoul = 19.54931579845051
cycle= 47 E= -54.4038420005827  delta_E= -2.13e-14  |g|= 3.23e-12  |ddm|= 3.98e-12
    CPU time for cycle= 47      0.34 sec, wall time      0.09 sec
diis-norm(errvec)=4.56719e-12
Linear dependence found in DIIS error vectors.
diis-c [-2.89052492e-16  1.25000000e-01  1.25000000e-01  1.25000000e-01
  1.25000000e-01  1.25000000e-01  1.25000000e-01  1.25000000e-01
  1.25000000e-01]
alpha HOMO (B2u) = -0.570893995059201  LUMO (Ag) = 0.0306020672500605
alpha irrep_nelec = [2, 0, 0, 0, 0, 1, 1, 1]
beta  irrep_nelec = [2, 0, 0, 0, 0, 0, 0, 0]
alpha-Ag nocc = 2  HOMO = -1.16316252298724  LUMO = 0.0306020672500605
   mo_energy = [-1.56711369e+01 -1.16316252e+00  3.06020673e-02  1.19341873e-01
  1.19341873e-01  1.76817981e-01  4.14767657e-01  4.14767657e-01
  7.36602271e-01  1.13028392e+00  1.13028392e+00  1.13028392e+00
  1.15676524e+00  1.15676524e+00  2.81442599e+00  3.21221092e+00
  3.21221092e+00  3.24603387e+00  3.24603387e+00  3.24603387e+00
  8.44250188e+00  8.44250188e+00  8.44250188e+00  9.42206799e+00
  9.42206799e+00  1.08008190e+01  2.99179945e+01  2.99179945e+01
  3.77922179e+01  1.10234475e+02  1.10234475e+02  1.25031506e+02
  5.15329828e+02]
alpha-B1g nocc = 0
   mo_energy = [  0.11934187   0.41476766   1.13028392   1.13028392   1.15676524
   3.21221092   3.24603387   3.24603387   8.44250188   8.44250188
   9.42206799  29.91799452 110.23447524]
alpha-B2g nocc = 0
   mo_energy = [  0.11934187   0.41476766   1.13028392   1.13028392   1.15676524
   3.21221092   3.24603387   3.24603387   8.44250188   8.44250188
   9.42206799  29.91799452 110.23447524]
alpha-B3g nocc = 0
   mo_energy = [  0.11934187   0.41476766   1.13028392   1.13028392   1.15676524
   3.21221092   3.24603387   3.24603387   8.44250188   8.44250188
   9.42206799  29.91799452 110.23447524]
alpha-Au nocc = 0
   mo_energy = [ 0.37020802  1.17801639  3.2356337   9.12940272 36.7505481 ]
alpha-B1u nocc = 1  HOMO = -0.570893995059203  LUMO = 0.0319195623225126
   mo_energy = [-5.70893995e-01  3.19195623e-02  1.50017475e-01  3.70208019e-01
  3.70208019e-01  6.04115409e-01  1.17801639e+00  1.17801639e+00
  2.17061294e+00  3.23563370e+00  3.23563370e+00  7.11414008e+00
  9.12940272e+00  9.12940272e+00  2.20710155e+01  3.67505481e+01
  3.67505481e+01  7.02597885e+01  2.30883255e+02]
alpha-B2u nocc = 1  HOMO = -0.570893995059201  LUMO = 0.0319195623225153
   mo_energy = [-5.70893995e-01  3.19195623e-02  1.50017475e-01  3.70208019e-01
  3.70208019e-01  6.04115409e-01  1.17801639e+00  1.17801639e+00
  2.17061294e+00  3.23563370e+00  3.23563370e+00  7.11414008e+00
  9.12940272e+00  9.12940272e+00  2.20710155e+01  3.67505481e+01
  3.67505481e+01  7.02597885e+01  2.30883255e+02]
alpha-B3u nocc = 1  HOMO = -0.570893995059206  LUMO = 0.0319195623225129
   mo_energy = [-5.70893995e-01  3.19195623e-02  1.50017475e-01  3.70208019e-01
  3.70208019e-01  6.04115409e-01  1.17801639e+00  1.17801639e+00
  2.17061294e+00  3.23563370e+00  3.23563370e+00  7.11414008e+00
  9.12940272e+00  9.12940272e+00  2.20710155e+01  3.67505481e+01
  3.67505481e+01  7.02597885e+01  2.30883255e+02]
beta-Ag nocc = 2  HOMO = -0.726047097223604  LUMO = 0.0332608356470285
   mo_energy = [-1.55814977e+01 -7.26047097e-01  3.32608356e-02  1.20067723e-01
  1.20067723e-01  1.95266789e-01  4.32929728e-01  4.32929728e-01
  8.01896510e-01  1.13443765e+00  1.13443765e+00  1.13443765e+00
  1.25364995e+00  1.25364995e+00  2.92292996e+00  3.27290827e+00
  3.27290827e+00  3.27290827e+00  3.36951884e+00  3.36951884e+00
  8.50502384e+00  8.50502384e+00  8.50502384e+00  9.54559211e+00
  9.54559211e+00  1.08881030e+01  2.99780903e+01  2.99780903e+01
  3.78322742e+01  1.10252302e+02  1.10252302e+02  1.25045048e+02
  5.15333758e+02]
beta-B1g nocc = 0
   mo_energy = [  0.12006772   0.43292973   1.13443765   1.13443765   1.25364995
   3.27290827   3.27290827   3.36951884   8.50502384   8.50502384
   9.54559211  29.97809035 110.25230241]
beta-B2g nocc = 0
   mo_energy = [  0.12006772   0.43292973   1.13443765   1.13443765   1.25364995
   3.27290827   3.27290827   3.36951884   8.50502384   8.50502384
   9.54559211  29.97809035 110.25230241]
beta-B3g nocc = 0
   mo_energy = [  0.12006772   0.43292973   1.13443765   1.13443765   1.25364995
   3.27290827   3.27290827   3.36951884   8.50502384   8.50502384
   9.54559211  29.97809035 110.25230241]
beta-Au nocc = 0
   mo_energy = [ 0.37138442  1.19596573  3.30505246  9.23022008 36.80835682]
beta-B1u nocc = 0
   mo_energy = [2.93803265e-02 9.22112989e-02 2.27812333e-01 3.71384417e-01
 3.71384417e-01 7.29191782e-01 1.19596573e+00 1.19596573e+00
 2.31382953e+00 3.30505246e+00 3.30505246e+00 7.22408123e+00
 9.23022008e+00 9.23022008e+00 2.21317607e+01 3.68083568e+01
 3.68083568e+01 7.02838812e+01 2.30890512e+02]
beta-B2u nocc = 0
   mo_energy = [2.93803265e-02 9.22112989e-02 2.27812333e-01 3.71384417e-01
 3.71384417e-01 7.29191782e-01 1.19596573e+00 1.19596573e+00
 2.31382953e+00 3.30505246e+00 3.30505246e+00 7.22408123e+00
 9.23022008e+00 9.23022008e+00 2.21317607e+01 3.68083568e+01
 3.68083568e+01 7.02838812e+01 2.30890512e+02]
beta-B3u nocc = 0
   mo_energy = [2.93803265e-02 9.22112989e-02 2.27812333e-01 3.71384417e-01
 3.71384417e-01 7.29191782e-01 1.19596573e+00 1.19596573e+00
 2.31382953e+00 3.30505246e+00 3.30505246e+00 7.22408123e+00
 9.23022008e+00 9.23022008e+00 2.21317607e+01 3.68083568e+01
 3.68083568e+01 7.02838812e+01 2.30890512e+02]
multiplicity <S^2> = 3.7578951  2S+1 = 4.0039456
E1 = -73.95315779903306  Ecoul = 19.54931579845038
cycle= 48 E= -54.4038420005827  delta_E= 2.84e-14  |g|= 2.73e-12  |ddm|= 2.42e-12
    CPU time for cycle= 48      0.34 sec, wall time      0.08 sec
diis-norm(errvec)=3.86861e-12
Linear dependence found in DIIS error vectors.
diis-c [-2.89052492e-16  1.25000000e-01  1.25000000e-01  1.25000000e-01
  1.25000000e-01  1.25000000e-01  1.25000000e-01  1.25000000e-01
  1.25000000e-01]
alpha HOMO (B1u) = -0.570893995059162  LUMO (Ag) = 0.0306020672500813
alpha irrep_nelec = [2, 0, 0, 0, 0, 1, 1, 1]
beta  irrep_nelec = [2, 0, 0, 0, 0, 0, 0, 0]
alpha-Ag nocc = 2  HOMO = -1.16316252298719  LUMO = 0.0306020672500813
   mo_energy = [-1.56711369e+01 -1.16316252e+00  3.06020673e-02  1.19341873e-01
  1.19341873e-01  1.76817981e-01  4.14767657e-01  4.14767657e-01
  7.36602271e-01  1.13028392e+00  1.13028392e+00  1.13028392e+00
  1.15676524e+00  1.15676524e+00  2.81442599e+00  3.21221092e+00
  3.21221092e+00  3.24603387e+00  3.24603387e+00  3.24603387e+00
  8.44250188e+00  8.44250188e+00  8.44250188e+00  9.42206799e+00
  9.42206799e+00  1.08008190e+01  2.99179945e+01  2.99179945e+01
  3.77922179e+01  1.10234475e+02  1.10234475e+02  1.25031506e+02
  5.15329828e+02]
alpha-B1g nocc = 0
   mo_energy = [  0.11934187   0.41476766   1.13028392   1.13028392   1.15676524
   3.21221092   3.24603387   3.24603387   8.44250188   8.44250188
   9.42206799  29.91799452 110.23447524]
alpha-B2g nocc = 0
   mo_energy = [  0.11934187   0.41476766   1.13028392   1.13028392   1.15676524
   3.21221092   3.24603387   3.24603387   8.44250188   8.44250188
   9.42206799  29.91799452 110.23447524]
alpha-B3g nocc = 0
   mo_energy = [  0.11934187   0.41476766   1.13028392   1.13028392   1.15676524
   3.21221092   3.24603387   3.24603387   8.44250188   8.44250188
   9.42206799  29.91799452 110.23447524]
alpha-Au nocc = 0
   mo_energy = [ 0.37020802  1.17801639  3.2356337   9.12940272 36.7505481 ]
alpha-B1u nocc = 1  HOMO = -0.570893995059162  LUMO = 0.0319195623225046
   mo_energy = [-5.70893995e-01  3.19195623e-02  1.50017475e-01  3.70208019e-01
  3.70208019e-01  6.04115409e-01  1.17801639e+00  1.17801639e+00
  2.17061294e+00  3.23563370e+00  3.23563370e+00  7.11414008e+00
  9.12940272e+00  9.12940272e+00  2.20710155e+01  3.67505481e+01
  3.67505481e+01  7.02597885e+01  2.30883255e+02]
alpha-B2u nocc = 1  HOMO = -0.570893995059169  LUMO = 0.0319195623225091
   mo_energy = [-5.70893995e-01  3.19195623e-02  1.50017475e-01  3.70208019e-01
  3.70208019e-01  6.04115409e-01  1.17801639e+00  1.17801639e+00
  2.17061294e+00  3.23563370e+00  3.23563370e+00  7.11414008e+00
  9.12940272e+00  9.12940272e+00  2.20710155e+01  3.67505481e+01
  3.67505481e+01  7.02597885e+01  2.30883255e+02]
alpha-B3u nocc = 1  HOMO = -0.570893995059167  LUMO = 0.0319195623225037
   mo_energy = [-5.70893995e-01  3.19195623e-02  1.50017475e-01  3.70208019e-01
  3.70208019e-01  6.04115409e-01  1.17801639e+00  1.17801639e+00
  2.17061294e+00  3.23563370e+00  3.23563370e+00  7.11414008e+00
  9.12940272e+00  9.12940272e+00  2.20710155e+01  3.67505481e+01
  3.67505481e+01  7.02597885e+01  2.30883255e+02]
beta-Ag nocc = 2  HOMO = -0.726047097223922  LUMO = 0.0332608356470423
   mo_energy = [-1.55814977e+01 -7.26047097e-01  3.32608356e-02  1.20067723e-01
  1.20067723e-01  1.95266789e-01  4.32929728e-01  4.32929728e-01
  8.01896510e-01  1.13443765e+00  1.13443765e+00  1.13443765e+00
  1.25364995e+00  1.25364995e+00  2.92292996e+00  3.27290827e+00
  3.27290827e+00  3.27290827e+00  3.36951884e+00  3.36951884e+00
  8.50502384e+00  8.50502384e+00  8.50502384e+00  9.54559211e+00
  9.54559211e+00  1.08881030e+01  2.99780903e+01  2.99780903e+01
  3.78322742e+01  1.10252302e+02  1.10252302e+02  1.25045048e+02
  5.15333758e+02]
beta-B1g nocc = 0
   mo_energy = [  0.12006772   0.43292973   1.13443765   1.13443765   1.25364995
   3.27290827   3.27290827   3.36951884   8.50502384   8.50502384
   9.54559211  29.97809035 110.25230241]
beta-B2g nocc = 0
   mo_energy = [  0.12006772   0.43292973   1.13443765   1.13443765   1.25364995
   3.27290827   3.27290827   3.36951884   8.50502384   8.50502384
   9.54559211  29.97809035 110.25230241]
beta-B3g nocc = 0
   mo_energy = [  0.12006772   0.43292973   1.13443765   1.13443765   1.25364995
   3.27290827   3.27290827   3.36951884   8.50502384   8.50502384
   9.54559211  29.97809035 110.25230241]
beta-Au nocc = 0
   mo_energy = [ 0.37138442  1.19596573  3.30505246  9.23022008 36.80835682]
beta-B1u nocc = 0
   mo_energy = [2.93803265e-02 9.22112989e-02 2.27812333e-01 3.71384417e-01
 3.71384417e-01 7.29191782e-01 1.19596573e+00 1.19596573e+00
 2.31382953e+00 3.30505246e+00 3.30505246e+00 7.22408123e+00
 9.23022008e+00 9.23022008e+00 2.21317607e+01 3.68083568e+01
 3.68083568e+01 7.02838812e+01 2.30890512e+02]
beta-B2u nocc = 0
   mo_energy = [2.93803265e-02 9.22112989e-02 2.27812333e-01 3.71384417e-01
 3.71384417e-01 7.29191782e-01 1.19596573e+00 1.19596573e+00
 2.31382953e+00 3.30505246e+00 3.30505246e+00 7.22408123e+00
 9.23022008e+00 9.23022008e+00 2.21317607e+01 3.68083568e+01
 3.68083568e+01 7.02838812e+01 2.30890512e+02]
beta-B3u nocc = 0
   mo_energy = [2.93803265e-02 9.22112989e-02 2.27812333e-01 3.71384417e-01
 3.71384417e-01 7.29191782e-01 1.19596573e+00 1.19596573e+00
 2.31382953e+00 3.30505246e+00 3.30505246e+00 7.22408123e+00
 9.23022008e+00 9.23022008e+00 2.21317607e+01 3.68083568e+01
 3.68083568e+01 7.02838812e+01 2.30890512e+02]
multiplicity <S^2> = 3.7578951  2S+1 = 4.0039456
E1 = -73.95315779903275  Ecoul = 19.549315798450003
cycle= 49 E= -54.4038420005827  delta_E= -6.39e-14  |g|= 2.44e-12  |ddm|= 6.12e-13
    CPU time for cycle= 49      0.34 sec, wall time      0.08 sec
alpha HOMO (B1u) = -0.570893995059032  LUMO (Ag) = 0.0306020672500816
alpha irrep_nelec = [2, 0, 0, 0, 0, 1, 1, 1]
beta  irrep_nelec = [2, 0, 0, 0, 0, 0, 0, 0]
alpha-Ag nocc = 2  HOMO = -1.16316252298703  LUMO = 0.0306020672500816
   mo_energy = [-1.56711369e+01 -1.16316252e+00  3.06020673e-02  1.19341873e-01
  1.19341873e-01  1.76817981e-01  4.14767657e-01  4.14767657e-01
  7.36602271e-01  1.13028392e+00  1.13028392e+00  1.13028392e+00
  1.15676524e+00  1.15676524e+00  2.81442599e+00  3.21221092e+00
  3.21221092e+00  3.24603387e+00  3.24603387e+00  3.24603387e+00
  8.44250188e+00  8.44250188e+00  8.44250188e+00  9.42206799e+00
  9.42206799e+00  1.08008190e+01  2.99179945e+01  2.99179945e+01
  3.77922179e+01  1.10234475e+02  1.10234475e+02  1.25031506e+02
  5.15329828e+02]
alpha-B1g nocc = 0
   mo_energy = [  0.11934187   0.41476766   1.13028392   1.13028392   1.15676524
   3.21221092   3.24603387   3.24603387   8.44250188   8.44250188
   9.42206799  29.91799452 110.23447524]
alpha-B2g nocc = 0
   mo_energy = [  0.11934187   0.41476766   1.13028392   1.13028392   1.15676524
   3.21221092   3.24603387   3.24603387   8.44250188   8.44250188
   9.42206799  29.91799452 110.23447524]
alpha-B3g nocc = 0
   mo_energy = [  0.11934187   0.41476766   1.13028392   1.13028392   1.15676524
   3.21221092   3.24603387   3.24603387   8.44250188   8.44250188
   9.42206799  29.91799452 110.23447524]
alpha-Au nocc = 0
   mo_energy = [ 0.37020802  1.17801639  3.2356337   9.12940272 36.7505481 ]
alpha-B1u nocc = 1  HOMO = -0.570893995059032  LUMO = 0.0319195623225129
   mo_energy = [-5.70893995e-01  3.19195623e-02  1.50017475e-01  3.70208019e-01
  3.70208019e-01  6.04115409e-01  1.17801639e+00  1.17801639e+00
  2.17061294e+00  3.23563370e+00  3.23563370e+00  7.11414008e+00
  9.12940272e+00  9.12940272e+00  2.20710155e+01  3.67505481e+01
  3.67505481e+01  7.02597885e+01  2.30883255e+02]
alpha-B2u nocc = 1  HOMO = -0.57089399505904  LUMO = 0.0319195623224958
   mo_energy = [-5.70893995e-01  3.19195623e-02  1.50017475e-01  3.70208019e-01
  3.70208019e-01  6.04115409e-01  1.17801639e+00  1.17801639e+00
  2.17061294e+00  3.23563370e+00  3.23563370e+00  7.11414008e+00
  9.12940272e+00  9.12940272e+00  2.20710155e+01  3.67505481e+01
  3.67505481e+01  7.02597885e+01  2.30883255e+02]
alpha-B3u nocc = 1  HOMO = -0.570893995059035  LUMO = 0.0319195623225085
   mo_energy = [-5.70893995e-01  3.19195623e-02  1.50017475e-01  3.70208019e-01
  3.70208019e-01  6.04115409e-01  1.17801639e+00  1.17801639e+00
  2.17061294e+00  3.23563370e+00  3.23563370e+00  7.11414008e+00
  9.12940272e+00  9.12940272e+00  2.20710155e+01  3.67505481e+01
  3.67505481e+01  7.02597885e+01  2.30883255e+02]
beta-Ag nocc = 2  HOMO = -0.726047097225297  LUMO = 0.0332608356470162
   mo_energy = [-1.55814977e+01 -7.26047097e-01  3.32608356e-02  1.20067723e-01
  1.20067723e-01  1.95266789e-01  4.32929728e-01  4.32929728e-01
  8.01896510e-01  1.13443765e+00  1.13443765e+00  1.13443765e+00
  1.25364995e+00  1.25364995e+00  2.92292996e+00  3.27290827e+00
  3.27290827e+00  3.27290827e+00  3.36951884e+00  3.36951884e+00
  8.50502384e+00  8.50502384e+00  8.50502384e+00  9.54559211e+00
  9.54559211e+00  1.08881030e+01  2.99780903e+01  2.99780903e+01
  3.78322742e+01  1.10252302e+02  1.10252302e+02  1.25045048e+02
  5.15333758e+02]
beta-B1g nocc = 0
   mo_energy = [  0.12006772   0.43292973   1.13443765   1.13443765   1.25364995
   3.27290827   3.27290827   3.36951884   8.50502384   8.50502384
   9.54559211  29.97809035 110.25230241]
beta-B2g nocc = 0
   mo_energy = [  0.12006772   0.43292973   1.13443765   1.13443765   1.25364995
   3.27290827   3.27290827   3.36951884   8.50502384   8.50502384
   9.54559211  29.97809035 110.25230241]
beta-B3g nocc = 0
   mo_energy = [  0.12006772   0.43292973   1.13443765   1.13443765   1.25364995
   3.27290827   3.27290827   3.36951884   8.50502384   8.50502384
   9.54559211  29.97809035 110.25230241]
beta-Au nocc = 0
   mo_energy = [ 0.37138442  1.19596573  3.30505246  9.23022008 36.80835682]
beta-B1u nocc = 0
   mo_energy = [2.93803265e-02 9.22112989e-02 2.27812333e-01 3.71384417e-01
 3.71384417e-01 7.29191782e-01 1.19596573e+00 1.19596573e+00
 2.31382953e+00 3.30505246e+00 3.30505246e+00 7.22408123e+00
 9.23022008e+00 9.23022008e+00 2.21317607e+01 3.68083568e+01
 3.68083568e+01 7.02838812e+01 2.30890512e+02]
beta-B2u nocc = 0
   mo_energy = [2.93803265e-02 9.22112989e-02 2.27812333e-01 3.71384417e-01
 3.71384417e-01 7.29191782e-01 1.19596573e+00 1.19596573e+00
 2.31382953e+00 3.30505246e+00 3.30505246e+00 7.22408123e+00
 9.23022008e+00 9.23022008e+00 2.21317607e+01 3.68083568e+01
 3.68083568e+01 7.02838812e+01 2.30890512e+02]
beta-B3u nocc = 0
   mo_energy = [2.93803265e-02 9.22112989e-02 2.27812333e-01 3.71384417e-01
 3.71384417e-01 7.29191782e-01 1.19596573e+00 1.19596573e+00
 2.31382953e+00 3.30505246e+00 3.30505246e+00 7.22408123e+00
 9.23022008e+00 9.23022008e+00 2.21317607e+01 3.68083568e+01
 3.68083568e+01 7.02838812e+01 2.30890512e+02]
multiplicity <S^2> = 3.7578951  2S+1 = 4.0039456
E1 = -73.95315779903146  Ecoul = 19.549315798448728
Extra cycle  E= -54.4038420005827  delta_E= 2.13e-14  |g|= 1.14e-12  |ddm|= 6.12e-13
    CPU time for scf_cycle     22.63 sec, wall time      5.77 sec
    CPU time for SCF     22.64 sec, wall time      5.78 sec
converged SCF energy = -54.4038420005827  <S^2> = 3.7578951  2S+1 = 4.0039456
irreps of each MO ['Ag' 'Ag' 'B1u' 'B2u' 'B3u' 'Ag' 'B1u' 'B2u' 'B3u' 'Ag' 'Ag' 'B1g' 'B2g'
 'B3g' 'B1u' 'B2u' 'B3u' 'Ag' 'Au' 'B1u' 'B1u' 'B2u' 'B2u' 'B3u' 'B3u'
 'Ag' 'Ag' 'B1g' 'B2g' 'B3g' 'B1u' 'B2u' 'B3u' 'Ag' 'Ag' 'Ag' 'Ag' 'B1g'
 'B1g' 'B2g' 'B2g' 'B3g' 'B3g' 'Ag' 'Ag' 'B1g' 'B2g' 'B3g' 'Au' 'B1u'
 'B1u' 'B2u' 'B2u' 'B3u' 'B3u' 'B1u' 'B2u' 'B3u' 'Ag' 'Ag' 'Ag' 'B1g'
 'B2g' 'B3g' 'Au' 'B1u' 'B1u' 'B2u' 'B2u' 'B3u' 'B3u' 'Ag' 'Ag' 'Ag' 'B1g'
 'B1g' 'B2g' 'B2g' 'B3g' 'B3g' 'B1u' 'B2u' 'B3u' 'Ag' 'Ag' 'Ag' 'B1g'
 'B1g' 'B2g' 'B2g' 'B3g' 'B3g' 'Au' 'B1u' 'B1u' 'B2u' 'B2u' 'B3u' 'B3u'
 'Ag' 'Ag' 'B1g' 'B2g' 'B3g' 'Ag' 'B1u' 'B2u' 'B3u' 'Ag' 'Ag' 'B1g' 'B2g'
 'B3g' 'Au' 'B1u' 'B1u' 'B2u' 'B2u' 'B3u' 'B3u' 'Ag' 'B1u' 'B2u' 'B3u'
 'Ag' 'Ag' 'B1g' 'B2g' 'B3g' 'Ag' 'B1u' 'B2u' 'B3u' 'Ag']
irreps of each MO ['Ag' 'Ag' 'B1u' 'B2u' 'B3u' 'Ag' 'B1u' 'B2u' 'B3u' 'Ag' 'Ag' 'B1g' 'B2g'
 'B3g' 'Ag' 'B1u' 'B2u' 'B3u' 'Au' 'B1u' 'B1u' 'B2u' 'B2u' 'B3u' 'B3u'
 'Ag' 'Ag' 'B1g' 'B2g' 'B3g' 'B1u' 'B2u' 'B3u' 'Ag' 'Ag' 'Ag' 'Ag' 'B1g'
 'B1g' 'B2g' 'B2g' 'B3g' 'B3g' 'Au' 'B1u' 'B1u' 'B2u' 'B2u' 'B3u' 'B3u'
 'Ag' 'Ag' 'B1g' 'B2g' 'B3g' 'B1u' 'B2u' 'B3u' 'Ag' 'Ag' 'Ag' 'Ag' 'B1g'
 'B1g' 'B2g' 'B2g' 'B3g' 'B3g' 'Au' 'B1u' 'B1u' 'B2u' 'B2u' 'B3u' 'B3u'
 'Ag' 'Ag' 'B1g' 'B2g' 'B3g' 'B1u' 'B2u' 'B3u' 'Ag' 'Ag' 'Ag' 'B1g' 'B1g'
 'B2g' 'B2g' 'B3g' 'B3g' 'Au' 'B1u' 'B1u' 'B2u' 'B2u' 'B3u' 'B3u' 'Ag'
 'Ag' 'B1g' 'B2g' 'B3g' 'Ag' 'B1u' 'B2u' 'B3u' 'Ag' 'Ag' 'B1g' 'B2g' 'B3g'
 'Au' 'B1u' 'B1u' 'B2u' 'B2u' 'B3u' 'B3u' 'Ag' 'B1u' 'B2u' 'B3u' 'Ag' 'Ag'
 'B1g' 'B2g' 'B3g' 'Ag' 'B1u' 'B2u' 'B3u' 'Ag']
irreps of each MO ['Ag' 'Ag' 'B2u' 'B1u' 'B3u' 'Ag' 'B2u' 'B3u' 'B1u' 'B1g' 'B2g' 'B3g' 'Ag'
 'Ag' 'B2u' 'B3u' 'B1u' 'Ag' 'B2u' 'B2u' 'B3u' 'Au' 'B1u' 'B3u' 'B1u'
 'B3g' 'B2g' 'B1g' 'Ag' 'Ag' 'B3u' 'B2u' 'B1u' 'Ag' 'B3g' 'B2g' 'Ag' 'B1g'
 'B2g' 'B3g' 'B1g' 'Ag' 'Ag' 'B1g' 'B2g' 'B3g' 'Ag' 'Ag' 'B3u' 'B2u' 'B1u'
 'B1u' 'Au' 'B3u' 'B2u' 'B1u' 'B2u' 'B3u' 'Ag' 'Ag' 'B1g' 'B3g' 'B2g' 'Ag'
 'B3u' 'B1u' 'B1u' 'B2u' 'Au' 'B3u' 'B2u' 'Ag' 'B2g' 'B2g' 'B3g' 'Ag'
 'B1g' 'Ag' 'B3g' 'B1g' 'B1u' 'B2u' 'B3u' 'Ag' 'B2g' 'B3g' 'Ag' 'B1g'
 'B2g' 'B3g' 'Ag' 'B1g' 'B1u' 'B2u' 'B1u' 'B3u' 'Au' 'B2u' 'B3u' 'Ag' 'Ag'
 'B2g' 'B1g' 'B3g' 'Ag' 'B1u' 'B2u' 'B3u' 'Ag' 'B1g' 'B3g' 'B2g' 'Ag'
 'B1u' 'B3u' 'B1u' 'Au' 'B2u' 'B2u' 'B3u' 'Ag' 'B1u' 'B2u' 'B3u' 'Ag'
 'B1g' 'B2g' 'B3g' 'Ag' 'Ag' 'B1u' 'B2u' 'B3u' 'Ag']
