#INFO: **** input file is /lustre09/project/6004934/jaafar1/PySCF-MRCC/Neon/Cation/AE/dawCV2Z/UHF/input.py ****
import pyscf
from pyscf import cc, lib, tools, scf, symm, ao2mo
from pyscf.gto.basis import parse_gaussian
from pyscf.scf import atom_hf

name = 'out'
mol = pyscf.M(
    atom = '''
        NE
    ''',
    unit = 'angstrom',
    basis = {
            'NE' : parse_gaussian.load('Ne-d-aug-cc-pwCVDZ.gbs', 'NE')
    },
    charge = +1,
    spin = 1,
    symmetry = True,
    verbose = 9,
    symmetry_subgroup = 'D2h',
    output = name +'.txt',
    max_memory = 4000,
)

original_AtomSphAverageRHF = atom_hf.AtomSphAverageRHF

class CustomAtomSphAverageRHF(original_AtomSphAverageRHF):
    def __init__(self, mol):
        super().__init__(mol)
        self.max_cycle = 9999
        self.direct_scf = False

atom_hf.AtomSphAverageRHF = CustomAtomSphAverageRHF

mf = mol.UHF().set(
    conv_tol=1e-15,
    max_cycle=9999,
    ddm_tol=1e-14,
    direct_scf=False,
    chkfile=name + '.chk',
    init_guess='atom',
    irrep_nelec={'Ag': 4, 'B3u': 2, 'B2u': 2, 'B1u': 1}
)

mf.kernel()

atom_hf.AtomSphAverageRHF = original_AtomSphAverageRHF

#pyscf.tools.fcidump.from_chkfile_uhf('FCIdump',name+'.chk',tol=1e-18, float_format='% 0.20E',molpro_orbsym=False,orbsym=None)
pyscf.tools.fcidump.from_scf_uhf(mf,'fort.55',tol=1e-18, float_format='% 0.20E',molpro_orbsym=False)
#MRCCInterface.run_mrcc(mf, fort_file='fort.55', mrcc_input_file='MINP', tol=1e-18, float_format='% 0.20E', molpro_orbsym=False)
#INFO: ******************** input file end ********************


System: uname_result(system='Linux', node='rc32504', release='5.14.0-687.5.4.el9_8.x86_64', version='#1 SMP PREEMPT_DYNAMIC Thu May 28 09:20:26 EDT 2026', machine='x86_64')  Threads 4
Python 3.13.2 (main, Feb  5 2025, 15:06:39) [GCC 13.3.0]
numpy 2.2.2  scipy 1.15.1  h5py 3.13.0
Date: Mon Jun  8 00:36:16 2026
PySCF version 2.10.0
PySCF path  /home/jaafar1/links/projects/rrg-tzeng/jaafar1/VENV/MRCCInterface/lib/python3.13/site-packages/pyscf

[CONFIG] ARGPARSE = False
[CONFIG] DEBUG = False
[CONFIG] MAX_MEMORY = 4000
[CONFIG] TMPDIR = /tmp
[CONFIG] UNIT = angstrom
[CONFIG] VERBOSE = 3
[CONFIG] conf_file = None
[INPUT] verbose = 9
[INPUT] max_memory = 4000 
[INPUT] num. atoms = 1
[INPUT] num. electrons = 9
[INPUT] charge = 1
[INPUT] spin (= nelec alpha-beta = 2S) = 1
[INPUT] symmetry True subgroup D2h
[INPUT] Mole.unit = angstrom
[INPUT] Symbol           X                Y                Z      unit          X                Y                Z       unit  Magmom
[INPUT]  1 Ne     0.000000000000   0.000000000000   0.000000000000 AA    0.000000000000   0.000000000000   0.000000000000 Bohr   0.0
[INPUT] ---------------- BASIS SET ---------------- 
[INPUT] l, kappa, [nprim/nctr], expnt,             c_1 c_2 ...
[INPUT] Ne
[INPUT] 0    0    [9    /2   ]  17880             0.000738 -0.000172
                                2683              0.005677 -0.001357
                                611.5             0.028883 -0.006737
                                173.5             0.10854 -0.027663
                                56.64             0.290907 -0.076208
                                20.42             0.448324 -0.175227
                                7.81              0.258026 -0.107038
                                1.653             0.015063 0.56705
                                0.4869            -0.0021 0.565216
[INPUT] 0    0    [1    /1   ]  8.116                1
[INPUT] 0    0    [1    /1   ]  0.4869               1
[INPUT] 0    0    [1    /1   ]  0.123                1
[INPUT] 0    0    [1    /1   ]  0.0311               1
[INPUT] 1    0    [1    /1   ]  20.658               1
[INPUT] 1    0    [4    /1   ]  28.39             0.046087
                                6.27              0.240181
                                1.695             0.508744
                                0.4317            0.45566
[INPUT] 1    0    [1    /1   ]  0.4317               1
[INPUT] 1    0    [1    /1   ]  0.1064               1
[INPUT] 1    0    [1    /1   ]  0.0262               1
[INPUT] 2    0    [1    /1   ]  2.202                1
[INPUT] 2    0    [1    /1   ]  0.631                1
[INPUT] 2    0    [1    /1   ]  0.181                1

nuclear repulsion = 0
point group symmetry = SO3, use subgroup D2h
symmetry origin: [0. 0. 0.]
symmetry axis x: [1. 0. 0.]
symmetry axis y: [0. 1. 0.]
symmetry axis z: [0. 0. 1.]
num. orbitals of irrep Ag = 12
num. orbitals of irrep B1g = 3
num. orbitals of irrep B2g = 3
num. orbitals of irrep B3g = 3
num. orbitals of irrep B1u = 5
num. orbitals of irrep B2u = 5
num. orbitals of irrep B3u = 5
number of shells = 13
number of NR pGTOs = 52
number of NR cGTOs = 36
basis = {'NE': [[0, [17880.0, 0.000738, -0.000172], [2683.0, 0.005677, -0.001357], [611.5, 0.028883, -0.006737], [173.5, 0.10854, -0.027663], [56.64, 0.290907, -0.076208], [20.42, 0.448324, -0.175227], [7.81, 0.258026, -0.107038], [1.653, 0.015063, 0.56705], [0.4869, -0.0021, 0.565216]], [0, [8.116, 1.0]], [0, [0.4869, 1.0]], [0, [0.123, 1.0]], [0, [0.0311, 1.0]], [1, [20.658, 1.0]], [1, [28.39, 0.046087], [6.27, 0.240181], [1.695, 0.508744], [0.4317, 0.45566]], [1, [0.4317, 1.0]], [1, [0.1064, 1.0]], [1, [0.0262, 1.0]], [2, [2.202, 1.0]], [2, [0.631, 1.0]], [2, [0.181, 1.0]]]}
ecp = {}
bas 0, expnt(s) = [1.788e+04 2.683e+03 6.115e+02 1.735e+02 5.664e+01 2.042e+01 7.810e+00
 1.653e+00 4.869e-01]
bas 1, expnt(s) = [8.116]
bas 2, expnt(s) = [0.4869]
bas 3, expnt(s) = [0.123]
bas 4, expnt(s) = [0.0311]
bas 5, expnt(s) = [20.658]
bas 6, expnt(s) = [28.39    6.27    1.695   0.4317]
bas 7, expnt(s) = [0.4317]
bas 8, expnt(s) = [0.1064]
bas 9, expnt(s) = [0.0262]
bas 10, expnt(s) = [2.202]
bas 11, expnt(s) = [0.631]
bas 12, expnt(s) = [0.181]
CPU time:         1.11
arg.atm = [[10 20  1 23  0  0]]
arg.bas = [[ 0  0  9  2  0 24 33  0]
 [ 0  0  1  1  0 51 52  0]
 [ 0  0  1  1  0 53 54  0]
 [ 0  0  1  1  0 55 56  0]
 [ 0  0  1  1  0 57 58  0]
 [ 0  1  1  1  0 59 60  0]
 [ 0  1  4  1  0 61 65  0]
 [ 0  1  1  1  0 69 70  0]
 [ 0  1  1  1  0 71 72  0]
 [ 0  1  1  1  0 73 74  0]
 [ 0  2  1  1  0 75 76  0]
 [ 0  2  1  1  0 77 78  0]
 [ 0  2  1  1  0 79 80  0]]
arg.env = [ 0.00000000e+00  0.00000000e+00  0.00000000e+00  0.00000000e+00
  0.00000000e+00  0.00000000e+00  0.00000000e+00  0.00000000e+00
  0.00000000e+00  0.00000000e+00  0.00000000e+00  0.00000000e+00
  0.00000000e+00  0.00000000e+00  0.00000000e+00  0.00000000e+00
  0.00000000e+00  0.00000000e+00  0.00000000e+00  0.00000000e+00
  0.00000000e+00  0.00000000e+00  0.00000000e+00  0.00000000e+00
  1.78800000e+04  2.68300000e+03  6.11500000e+02  1.73500000e+02
  5.66400000e+01  2.04200000e+01  7.81000000e+00  1.65300000e+00
  4.86900000e-01  2.88301668e+00  5.34686915e+00  8.97335406e+00
  1.31093025e+01  1.51744082e+01  1.08805024e+01  3.04555820e+00
  5.54793385e-02 -3.09253258e-03 -6.71922390e-01 -1.27808690e+00
 -2.09304673e+00 -3.34109571e+00 -3.97519125e+00 -4.25263255e+00
 -1.26340122e+00  2.08853148e+00  8.32356372e-01  8.11600000e+00
  1.21484691e+01  4.86900000e-01  1.47263411e+00  1.23000000e-01
  5.24739622e-01  3.11000000e-02  1.87104967e-01  2.06580000e+01
  1.28482723e+02  2.83900000e+01  6.27000000e+00  1.69500000e+00
  4.31700000e-01  8.81089136e+00  6.95196763e+00  2.87042428e+00
  4.65160826e-01  4.31700000e-01  1.02085005e+00  1.06400000e-01
  1.77280688e-01  2.62000000e-02  3.07511249e-02  2.20200000e+00
  1.03862719e+01  6.31000000e-01  1.16568381e+00  1.81000000e-01
  1.31059013e-01]
ecpbas  = []


******** <class 'pyscf.scf.uhf_symm.SymAdaptedUHF'> ********
method = SymAdaptedUHF
initial guess = atom
damping factor = 0
level_shift factor = 0
DIIS = <class 'pyscf.scf.diis.CDIIS'>
diis_start_cycle = 1
diis_space = 8
diis_damp = 0
SCF conv_tol = 1e-15
SCF conv_tol_grad = None
SCF ddm_tol = 1e-14
SCF max_cycles = 9999
direct_scf = False
chkfile to save SCF result = out.chk
max_memory 4000 MB (current use 122 MB)
number electrons alpha = 5  beta = 4
irrep_nelec {'Ag': 4, 'B3u': 2, 'B2u': 2, 'B1u': 1}
Freeze 9 electrons in irreps ['Ag', 'B3u', 'B2u', 'B1u']
    0 free electrons in irreps B1g B2g B3g
cond(S) = 145.697005939522

WARN: Singularity detected in overlap matrix (condition number =  146). SCF may be inaccurate and hard to converge.

Set gradient conv threshold to 3.16228e-08
Spherically averaged atomic HF for {'Ne'}


******** <class '__main__.CustomAtomSphAverageRHF'> ********
method = CustomAtomSphAverageRHF
initial guess = minao
damping factor = 0
level_shift factor = 0
DIIS = <class 'pyscf.scf.diis.CDIIS'>
diis_start_cycle = 1
diis_space = 8
diis_damp = 0
SCF conv_tol = 1e-09
SCF conv_tol_grad = None
SCF ddm_tol = 1e-10
SCF max_cycles = 9999
direct_scf = False
chkfile to save SCF result = /tmp/tmps659qpqi
max_memory 4000 MB (current use 123 MB)
atom = Ne
Set gradient conv threshold to 3.16228e-05
Initial guess from minao.
Nelec from initial guess = 9.996884282087343
E1 = -183.58558880151682  E_coul = 55.113892098273546
init E= -128.471696703243
l = 0  e_0 = -32.5452219
l = 0  e_1 = -1.85001033
l = 0  e_2 = 0.0544085803
l = 0  e_3 = 0.418656405
l = 0  e_4 = 2.90762571
l = 0  e_5 = 30.3195258
l = 1  e_0 = -0.766952773
l = 1  e_1 = 0.0637555468
l = 1  e_2 = 0.365726342
l = 1  e_3 = 2.05403128
l = 1  e_4 = 28.4610057
l = 2  e_0 = 0.582574697
l = 2  e_1 = 2.11284949
l = 2  e_2 = 6.69765424
    CPU time for initialize scf      0.07 sec, wall time      0.04 sec
l = 0  e_0 = -32.5452219
l = 0  e_1 = -1.85001033
l = 0  e_2 = 0.0544085803
l = 0  e_3 = 0.418656405
l = 0  e_4 = 2.90762571
l = 0  e_5 = 30.3195258
l = 1  e_0 = -0.766952773
l = 1  e_1 = 0.0637555468
l = 1  e_2 = 0.365726342
l = 1  e_3 = 2.05403128
l = 1  e_4 = 28.4610057
l = 2  e_0 = 0.582574697
l = 2  e_1 = 2.11284949
l = 2  e_2 = 6.69765424
l = 0  occ = 2 + 0
l = 1  occ = 1 + 0
l = 2  occ = 0 + 0
l = 3  occ = 0 + 0
E1 = -181.78438701102075  E_coul = 53.29313095878124
cycle= 1 E= -128.49125605224  delta_E= -0.0196  |g|=    0  |ddm|= 0.256
    CPU time for cycle= 1      0.00 sec, wall time      0.00 sec
diis-norm(errvec)=0.329342
diis-c [-0.10846619  1.        ]
l = 0  e_0 = -32.9239053
l = 0  e_1 = -1.98715959
l = 0  e_2 = 0.0536557612
l = 0  e_3 = 0.404566
l = 0  e_4 = 2.80814586
l = 0  e_5 = 30.0183247
l = 1  e_0 = -0.897286847
l = 1  e_1 = 0.0638771607
l = 1  e_2 = 0.357860649
l = 1  e_3 = 1.96620459
l = 1  e_4 = 28.1274596
l = 2  e_0 = 0.578157944
l = 2  e_1 = 2.06675722
l = 2  e_2 = 6.56279526
l = 0  occ = 2 + 0
l = 1  occ = 1 + 0
l = 2  occ = 0 + 0
l = 3  occ = 0 + 0
E1 = -182.7138422790289  E_coul = 54.21878239361064
cycle= 2 E= -128.495059885418  delta_E= -0.0038  |g|=    0  |ddm|= 0.119
    CPU time for cycle= 2      0.01 sec, wall time      0.00 sec
diis-norm(errvec)=0.167813
diis-c [-3.12078952e-05  3.37454391e-01  6.62545609e-01]
l = 0  e_0 = -32.7947336
l = 0  e_1 = -1.94077615
l = 0  e_2 = 0.0541505795
l = 0  e_3 = 0.409755619
l = 0  e_4 = 2.84185155
l = 0  e_5 = 30.1203653
l = 1  e_0 = -0.853301441
l = 1  e_1 = 0.0640035424
l = 1  e_2 = 0.360886026
l = 1  e_3 = 1.9960472
l = 1  e_4 = 28.2404423
l = 2  e_0 = 0.580038674
l = 2  e_1 = 2.08260618
l = 2  e_2 = 6.6082085
l = 0  occ = 2 + 0
l = 1  occ = 1 + 0
l = 2  occ = 0 + 0
l = 3  occ = 0 + 0
E1 = -182.40619871549563  E_coul = 53.90983009909691
cycle= 3 E= -128.496368616399  delta_E= -0.00131  |g|=    0  |ddm|= 0.0409
    CPU time for cycle= 3      0.01 sec, wall time      0.00 sec
diis-norm(errvec)=0.000937386
diis-c [-2.22780915e-07 -1.30731298e-02 -3.04945698e-02  1.04356770e+00]
l = 0  e_0 = -32.7942902
l = 0  e_1 = -1.94045347
l = 0  e_2 = 0.0541654742
l = 0  e_3 = 0.409856251
l = 0  e_4 = 2.84215891
l = 0  e_5 = 30.120811
l = 1  e_0 = -0.853062381
l = 1  e_1 = 0.0640062194
l = 1  e_2 = 0.360943646
l = 1  e_3 = 1.99634041
l = 1  e_4 = 28.2408868
l = 2  e_0 = 0.58009321
l = 2  e_1 = 2.08279695
l = 2  e_2 = 6.60858894
l = 0  occ = 2 + 0
l = 1  occ = 1 + 0
l = 2  occ = 0 + 0
l = 3  occ = 0 + 0
E1 = -182.40491856219185  E_coul = 53.908549885758944
cycle= 4 E= -128.496368676433  delta_E= -6e-08  |g|=    0  |ddm|= 0.000404
    CPU time for cycle= 4      0.00 sec, wall time      0.00 sec
diis-norm(errvec)=7.2494e-05
diis-c [-1.60919507e-09 -4.03482107e-04 -1.59647514e-04 -1.25279514e-01
  1.12584264e+00]
l = 0  e_0 = -32.7942923
l = 0  e_1 = -1.94043683
l = 0  e_2 = 0.0541669173
l = 0  e_3 = 0.409863402
l = 0  e_4 = 2.84217014
l = 0  e_5 = 30.1208134
l = 1  e_0 = -0.853053572
l = 1  e_1 = 0.064006288
l = 1  e_2 = 0.360945643
l = 1  e_3 = 1.99634762
l = 1  e_4 = 28.2408855
l = 2  e_0 = 0.580098581
l = 2  e_1 = 2.08280728
l = 2  e_2 = 6.60860015
l = 0  occ = 2 + 0
l = 1  occ = 1 + 0
l = 2  occ = 0 + 0
l = 3  occ = 0 + 0
E1 = -182.40504296886635  E_coul = 53.908674291382965
cycle= 5 E= -128.496368677483  delta_E= -1.05e-09  |g|=    0  |ddm|= 3.88e-05
    CPU time for cycle= 5      0.01 sec, wall time      0.00 sec
diis-norm(errvec)=1.62884e-05
diis-c [-4.86707860e-12  1.27409193e-04  1.34841432e-04  2.40683077e-03
 -1.31971247e-01  1.12930217e+00]
l = 0  e_0 = -32.7942813
l = 0  e_1 = -1.94043
l = 0  e_2 = 0.0541671277
l = 0  e_3 = 0.409864729
l = 0  e_4 = 2.8421752
l = 0  e_5 = 30.1208234
l = 1  e_0 = -0.853048257
l = 1  e_1 = 0.064006313
l = 1  e_2 = 0.360946202
l = 1  e_3 = 1.99635156
l = 1  e_4 = 28.2408958
l = 2  e_0 = 0.580099321
l = 2  e_1 = 2.08281014
l = 2  e_2 = 6.6086063
l = 0  occ = 2 + 0
l = 1  occ = 1 + 0
l = 2  occ = 0 + 0
l = 3  occ = 0 + 0
E1 = -182.40502344266685  E_coul = 53.9086547651676
cycle= 6 E= -128.496368677499  delta_E= -1.59e-11  |g|=    0  |ddm|= 9.86e-06
    CPU time for cycle= 6      0.01 sec, wall time      0.00 sec
diis-norm(errvec)=4.28719e-07
diis-c [-1.43640215e-14 -2.33809567e-05 -2.35717770e-05 -2.71709292e-04
  2.46981861e-02 -2.12973943e-01  1.18859442e+00]
l = 0  e_0 = -32.7942815
l = 0  e_1 = -1.94043011
l = 0  e_2 = 0.0541671245
l = 0  e_3 = 0.409864704
l = 0  e_4 = 2.84217513
l = 0  e_5 = 30.1208232
l = 1  e_0 = -0.853048431
l = 1  e_1 = 0.064006313
l = 1  e_2 = 0.360946192
l = 1  e_3 = 1.99635146
l = 1  e_4 = 28.2408956
l = 2  e_0 = 0.580099299
l = 2  e_1 = 2.08281007
l = 2  e_2 = 6.60860615
l = 0  occ = 2 + 0
l = 1  occ = 1 + 0
l = 2  occ = 0 + 0
l = 3  occ = 0 + 0
E1 = -182.405023577129  E_coul = 53.90865489962974
cycle= 7 E= -128.496368677499  delta_E=    0  |g|=    0  |ddm|= 1.62e-07
    CPU time for cycle= 7      0.00 sec, wall time      0.00 sec
diis-norm(errvec)=1.88013e-08
Linear dependence found in DIIS error vectors.
diis-c [-2.87099078e-15 -9.86289573e-06 -1.02369140e-05 -9.44343887e-05
  1.00625520e-02 -8.82663770e-02  4.83801291e-01  5.94517068e-01]
l = 0  e_0 = -32.7942815
l = 0  e_1 = -1.94043011
l = 0  e_2 = 0.0541671244
l = 0  e_3 = 0.409864704
l = 0  e_4 = 2.84217513
l = 0  e_5 = 30.1208232
l = 1  e_0 = -0.853048428
l = 1  e_1 = 0.064006313
l = 1  e_2 = 0.360946192
l = 1  e_3 = 1.99635146
l = 1  e_4 = 28.2408956
l = 2  e_0 = 0.580099299
l = 2  e_1 = 2.08281007
l = 2  e_2 = 6.60860615
l = 0  occ = 2 + 0
l = 1  occ = 1 + 0
l = 2  occ = 0 + 0
l = 3  occ = 0 + 0
E1 = -182.40502358069827  E_coul = 53.90865490319897
cycle= 8 E= -128.496368677499  delta_E= -5.68e-14  |g|=    0  |ddm|= 6.58e-09
    CPU time for cycle= 8      0.01 sec, wall time      0.00 sec
diis-norm(errvec)=8.52934e-09
Linear dependence found in DIIS error vectors.
diis-c [-1.32128224e-15 -6.26384043e-06 -6.57630335e-06 -5.47405293e-05
  6.29922046e-03 -5.56570865e-02  3.03242183e-01  3.72924369e-01
  3.73258895e-01]
l = 0  e_0 = -32.7942815
l = 0  e_1 = -1.94043011
l = 0  e_2 = 0.0541671244
l = 0  e_3 = 0.409864704
l = 0  e_4 = 2.84217513
l = 0  e_5 = 30.1208232
l = 1  e_0 = -0.853048427
l = 1  e_1 = 0.0640063129
l = 1  e_2 = 0.360946191
l = 1  e_3 = 1.99635146
l = 1  e_4 = 28.2408956
l = 2  e_0 = 0.580099299
l = 2  e_1 = 2.08281007
l = 2  e_2 = 6.60860615
l = 0  occ = 2 + 0
l = 1  occ = 1 + 0
l = 2  occ = 0 + 0
l = 3  occ = 0 + 0
E1 = -182.40502358153702  E_coul = 53.908654904037746
cycle= 9 E= -128.496368677499  delta_E= 2.84e-14  |g|=    0  |ddm|= 1.79e-09
    CPU time for cycle= 9      0.01 sec, wall time      0.00 sec
diis-norm(errvec)=5.62384e-09
Linear dependence found in DIIS error vectors.
diis-c [ 1.71556496e-17  3.42120289e-01 -3.55557069e-07  2.11055955e-05
 -4.17494881e-04  2.19886357e-03 -1.87977902e-02  3.34410289e-01
  3.40465094e-01]
l = 0  e_0 = -32.7942815
l = 0  e_1 = -1.9404301
l = 0  e_2 = 0.0541671244
l = 0  e_3 = 0.409864704
l = 0  e_4 = 2.84217513
l = 0  e_5 = 30.1208232
l = 1  e_0 = -0.853048425
l = 1  e_1 = 0.0640063129
l = 1  e_2 = 0.360946191
l = 1  e_3 = 1.99635146
l = 1  e_4 = 28.2408956
l = 2  e_0 = 0.580099299
l = 2  e_1 = 2.08281007
l = 2  e_2 = 6.60860615
l = 0  occ = 2 + 0
l = 1  occ = 1 + 0
l = 2  occ = 0 + 0
l = 3  occ = 0 + 0
E1 = -182.40502358278616  E_coul = 53.90865490528684
cycle= 10 E= -128.496368677499  delta_E= -5.68e-14  |g|=    0  |ddm|= 3.09e-09
    CPU time for cycle= 10      0.00 sec, wall time      0.00 sec
diis-norm(errvec)=9.14226e-10
Linear dependence found in DIIS error vectors.
diis-c [-2.19844602e-17  2.51027209e-01  2.51420506e-01  5.98728723e-06
 -3.83270408e-05 -5.68832030e-04 -2.49499282e-03  2.49866179e-01
  2.50782270e-01]
l = 0  e_0 = -32.7942815
l = 0  e_1 = -1.9404301
l = 0  e_2 = 0.0541671244
l = 0  e_3 = 0.409864704
l = 0  e_4 = 2.84217513
l = 0  e_5 = 30.1208232
l = 1  e_0 = -0.853048425
l = 1  e_1 = 0.0640063129
l = 1  e_2 = 0.360946191
l = 1  e_3 = 1.99635146
l = 1  e_4 = 28.2408956
l = 2  e_0 = 0.580099299
l = 2  e_1 = 2.08281007
l = 2  e_2 = 6.60860615
l = 0  occ = 2 + 0
l = 1  occ = 1 + 0
l = 2  occ = 0 + 0
l = 3  occ = 0 + 0
E1 = -182.40502358396228  E_coul = 53.90865490646304
cycle= 11 E= -128.496368677499  delta_E= 1.14e-13  |g|=    0  |ddm|= 1.77e-10
    CPU time for cycle= 11      0.01 sec, wall time      0.00 sec
diis-norm(errvec)=1.0206e-09
Linear dependence found in DIIS error vectors.
diis-c [-8.43427688e-16  2.01136993e-01  2.01870112e-01  2.01933016e-01
 -2.29810235e-05 -2.40935331e-04 -4.40944323e-03  1.99038526e-01
  2.00694713e-01]
l = 0  e_0 = -32.7942815
l = 0  e_1 = -1.9404301
l = 0  e_2 = 0.0541671244
l = 0  e_3 = 0.409864704
l = 0  e_4 = 2.84217513
l = 0  e_5 = 30.1208232
l = 1  e_0 = -0.853048426
l = 1  e_1 = 0.0640063129
l = 1  e_2 = 0.360946191
l = 1  e_3 = 1.99635146
l = 1  e_4 = 28.2408956
l = 2  e_0 = 0.580099299
l = 2  e_1 = 2.08281007
l = 2  e_2 = 6.60860615
l = 0  occ = 2 + 0
l = 1  occ = 1 + 0
l = 2  occ = 0 + 0
l = 3  occ = 0 + 0
E1 = -182.40502358441404  E_coul = 53.908654906914876
cycle= 12 E= -128.496368677499  delta_E= 5.68e-14  |g|=    0  |ddm|= 7.7e-11
    CPU time for cycle= 12      0.01 sec, wall time      0.00 sec
l = 0  e_0 = -32.7942815
l = 0  e_1 = -1.9404301
l = 0  e_2 = 0.0541671244
l = 0  e_3 = 0.409864704
l = 0  e_4 = 2.84217513
l = 0  e_5 = 30.1208232
l = 1  e_0 = -0.853048425
l = 1  e_1 = 0.0640063129
l = 1  e_2 = 0.360946191
l = 1  e_3 = 1.99635146
l = 1  e_4 = 28.2408956
l = 2  e_0 = 0.580099299
l = 2  e_1 = 2.08281007
l = 2  e_2 = 6.60860615
l = 0  occ = 2 + 0
l = 1  occ = 1 + 0
l = 2  occ = 0 + 0
l = 3  occ = 0 + 0
E1 = -182.4050235820038  E_coul = 53.908654904504445
Extra cycle  E= -128.496368677499  delta_E= -1.71e-13  |g|=    0  |ddm|= 7.7e-11
    CPU time for scf_cycle      0.15 sec, wall time      0.06 sec
    CPU time for SCF      0.15 sec, wall time      0.06 sec
Atomic HF for atom  Ne  converged. SCF energy = -128.496368677499

Atom Ne, E = -128.496368677
Nelec from initial guess = (np.float64(5.0000000000000036), np.float64(5.0000000000000036))
E1 = -182.4050235820038  Ecoul = 53.908654904504466
init E= -128.496368677499
    CPU time for initialize scf      0.19 sec, wall time      0.09 sec
alpha HOMO (B2u) = -0.853048425403397  LUMO (Ag) = 0.0541671244141695
alpha irrep_nelec = [2, 0, 0, 0, 1, 1, 1]
beta  irrep_nelec = [2, 0, 0, 0, 0, 1, 1]
alpha-Ag nocc = 2  HOMO = -1.9404301031193  LUMO = 0.0541671244141695
   mo_energy = [-32.79428151  -1.9404301    0.05416712   0.4098647    0.5800993
   0.5800993    2.08281007   2.08281007   2.84217513   6.60860615
   6.60860615  30.12082317]
alpha-B1g nocc = 0
   mo_energy = [0.5800993  2.08281007 6.60860615]
alpha-B2g nocc = 0
   mo_energy = [0.5800993  2.08281007 6.60860615]
alpha-B3g nocc = 0
   mo_energy = [0.5800993  2.08281007 6.60860615]
alpha-B1u nocc = 1  HOMO = -0.8530484254034  LUMO = 0.0640063129186832
   mo_energy = [-0.85304843  0.06400631  0.36094619  1.99635146 28.24089561]
alpha-B2u nocc = 1  HOMO = -0.853048425403397  LUMO = 0.0640063129186829
   mo_energy = [-0.85304843  0.06400631  0.36094619  1.99635146 28.24089561]
alpha-B3u nocc = 1  HOMO = -0.853048425403399  LUMO = 0.0640063129186825
   mo_energy = [-0.85304843  0.06400631  0.36094619  1.99635146 28.24089561]
beta-Ag nocc = 2  HOMO = -1.9404301031193  LUMO = 0.0541671244141695
   mo_energy = [-32.79428151  -1.9404301    0.05416712   0.4098647    0.5800993
   0.5800993    2.08281007   2.08281007   2.84217513   6.60860615
   6.60860615  30.12082317]
beta-B1g nocc = 0
   mo_energy = [0.5800993  2.08281007 6.60860615]
beta-B2g nocc = 0
   mo_energy = [0.5800993  2.08281007 6.60860615]
beta-B3g nocc = 0
   mo_energy = [0.5800993  2.08281007 6.60860615]
beta-B1u nocc = 0
   mo_energy = [-0.85304843  0.06400631  0.36094619  1.99635146 28.24089561]
beta-B2u nocc = 1  HOMO = -0.853048425403397  LUMO = 0.0640063129186829
   mo_energy = [-0.85304843  0.06400631  0.36094619  1.99635146 28.24089561]
beta-B3u nocc = 1  HOMO = -0.853048425403399  LUMO = 0.0640063129186825
   mo_energy = [-0.85304843  0.06400631  0.36094619  1.99635146 28.24089561]
multiplicity <S^2> = 0.75  2S+1 = 2
E1 = -172.34387841014313  Ecoul = 44.70055815796117
cycle= 1 E= -127.643320252182  delta_E= 0.853  |g|= 0.668  |ddm|=    1
    CPU time for cycle= 1      0.03 sec, wall time      0.02 sec
diis-norm(errvec)=0.945197
diis-c [-0.89339656  1.        ]
alpha HOMO (B3u) = -1.80915261845881  LUMO (Ag) = -0.1842160081074
alpha irrep_nelec = [2, 0, 0, 0, 1, 1, 1]
beta  irrep_nelec = [2, 0, 0, 0, 0, 1, 1]
alpha-Ag nocc = 2  HOMO = -2.94292757431373  LUMO = -0.1842160081074
   mo_energy = [-34.20750169  -2.94292757  -0.18421601   0.04965563   0.22099913
   0.23554868   1.42759678   1.48229999   2.06948118   5.61850152
   5.7185442   28.85493885]
alpha-B1g nocc = 0
   mo_energy = [0.23554868 1.48229999 5.7185442 ]
alpha-B2g nocc = 0
   mo_energy = [0.22426646 1.44153928 5.64281862]
alpha-B3g nocc = 0
   mo_energy = [0.22426646 1.44153928 5.64281862]
alpha-B1u nocc = 1  HOMO = -1.91776904823537  LUMO = -0.113293827022438
   mo_energy = [-1.91776905 -0.11329383  0.04132225  1.2365152  26.8559388 ]
alpha-B2u nocc = 1  HOMO = -1.80915261845881  LUMO = -0.108509236414318
   mo_energy = [-1.80915262 -0.10850924  0.05307887  1.29496846 26.93484009]
alpha-B3u nocc = 1  HOMO = -1.80915261845881  LUMO = -0.108509236414319
   mo_energy = [-1.80915262 -0.10850924  0.05307887  1.29496846 26.93484009]
beta-Ag nocc = 2  HOMO = -2.74076624134774  LUMO = -0.17892451110606
   mo_energy = [-34.15957041  -2.74076624  -0.17892451   0.06015551   0.23388183
   0.23693503   1.49139055   1.50930719   2.11730404   5.73596051
   5.75987194  28.89746567]
beta-B1g nocc = 0
   mo_energy = [0.23693503 1.49139055 5.73596051]
beta-B2g nocc = 0
   mo_energy = [0.23449527 1.50446353 5.75333623]
beta-B3g nocc = 0
   mo_energy = [0.23449527 1.50446353 5.75333623]
beta-B1u nocc = 0
   mo_energy = [-0.85304843 -0.10625227  0.06575795  1.38219055 26.98697712]
beta-B2u nocc = 1  HOMO = -1.75518869440942  LUMO = -0.107854448013972
   mo_energy = [-1.75518869 -0.10785445  0.05556758  1.31200546 26.95253185]
beta-B3u nocc = 1  HOMO = -1.75518869440941  LUMO = -0.107854448013973
   mo_energy = [-1.75518869 -0.10785445  0.05556758  1.31200546 26.95253185]
multiplicity <S^2> = 0.75106682  2S+1 = 2.0010665
E1 = -175.63628573449333  Ecoul = 47.87929438528462
cycle= 2 E= -127.756991349209  delta_E= -0.114  |g|= 0.26  |ddm|= 0.286
    CPU time for cycle= 2      0.02 sec, wall time      0.01 sec
diis-norm(errvec)=0.36711
diis-c [-0.03165505  0.25701203  0.74298797]
alpha HOMO (B3u) = -1.61957210305571  LUMO (Ag) = -0.175758615167965
alpha irrep_nelec = [2, 0, 0, 0, 1, 1, 1]
beta  irrep_nelec = [2, 0, 0, 0, 0, 1, 1]
alpha-Ag nocc = 2  HOMO = -2.75407233025649  LUMO = -0.175758615167965
   mo_energy = [-33.68247976  -2.75407233  -0.17575862   0.06702159   0.2324326
   0.2450821    1.49549253   1.54891005   2.19520979   5.79314213
   5.90102746  29.26873956]
alpha-B1g nocc = 0
   mo_energy = [0.2450821  1.54891005 5.90102746]
alpha-B2g nocc = 0
   mo_energy = [0.23530721 1.50889061 5.81920236]
alpha-B3g nocc = 0
   mo_energy = [0.23530721 1.50889061 5.81920236]
alpha-B1u nocc = 1  HOMO = -1.74200678197895  LUMO = -0.109955400340318
   mo_energy = [-1.74200678 -0.1099554   0.05224518  1.33639767 27.30751982]
alpha-B2u nocc = 1  HOMO = -1.61957210305571  LUMO = -0.10595351947923
   mo_energy = [-1.6195721  -0.10595352  0.06354897  1.40005575 27.39608856]
alpha-B3u nocc = 1  HOMO = -1.61957210305571  LUMO = -0.10595351947923
   mo_energy = [-1.6195721  -0.10595352  0.06354897  1.40005575 27.39608856]
beta-Ag nocc = 2  HOMO = -2.53973347902945  LUMO = -0.172083358366971
   mo_energy = [-33.6263569   -2.53973348  -0.17208336   0.07637416   0.24133213
   0.24564827   1.55520302   1.57027652   2.24875013   5.91918042
   5.95267904  29.31843118]
beta-B1g nocc = 0
   mo_energy = [0.24564827 1.55520302 5.91918042]
beta-B2g nocc = 0
   mo_energy = [0.24218075 1.56619563 5.94353399]
beta-B3g nocc = 0
   mo_energy = [0.24218075 1.56619563 5.94353399]
beta-B1u nocc = 0
   mo_energy = [-0.64772808 -0.10163244  0.08510505  1.52458442 27.46229757]
beta-B2u nocc = 1  HOMO = -1.56420911804054  LUMO = -0.105433987820437
   mo_energy = [-1.56420912 -0.10543399  0.06582959  1.4186329  27.41695567]
beta-B3u nocc = 1  HOMO = -1.56420911804054  LUMO = -0.105433987820437
   mo_energy = [-1.56420912 -0.10543399  0.06582959  1.4186329  27.41695567]
multiplicity <S^2> = 0.75166205  2S+1 = 2.0016614
E1 = -174.98771845472396  Ecoul = 47.22054952499324
cycle= 3 E= -127.767168929731  delta_E= -0.0102  |g|= 0.0248  |ddm|= 0.0973
    CPU time for cycle= 3      0.03 sec, wall time      0.01 sec
diis-norm(errvec)=0.0350122
diis-c [-5.93556282e-04 -2.15065125e-02 -1.12160217e-01  1.13366673e+00]
alpha HOMO (B2u) = -1.6063246339757  LUMO (Ag) = -0.174362931352374
alpha irrep_nelec = [2, 0, 0, 0, 1, 1, 1]
beta  irrep_nelec = [2, 0, 0, 0, 0, 1, 1]
alpha-Ag nocc = 2  HOMO = -2.74176417940796  LUMO = -0.174362931352374
   mo_energy = [-33.65816562  -2.74176418  -0.17436293   0.06961069   0.23466164
   0.24719575   1.50323569   1.55718836   2.20623003   5.80677397
   5.91730785  29.29178491]
alpha-B1g nocc = 0
   mo_energy = [0.24719575 1.55718836 5.91730785]
alpha-B2g nocc = 0
   mo_energy = [0.23751405 1.51670332 5.83340619]
alpha-B3g nocc = 0
   mo_energy = [0.23751405 1.51670332 5.83340619]
alpha-B1u nocc = 1  HOMO = -1.73750145014807  LUMO = -0.109570134089861
   mo_energy = [-1.73750145 -0.10957013  0.05353113  1.34370715 27.33077309]
alpha-B2u nocc = 1  HOMO = -1.6063246339757  LUMO = -0.1055618726229
   mo_energy = [-1.60632463 -0.10556187  0.06510205  1.41006501 27.42058156]
alpha-B3u nocc = 1  HOMO = -1.60632463397571  LUMO = -0.1055618726229
   mo_energy = [-1.60632463 -0.10556187  0.06510205  1.41006501 27.42058156]
beta-Ag nocc = 2  HOMO = -2.51953742171004  LUMO = -0.171047485080823
   mo_energy = [-33.5995841   -2.51953742  -0.17104749   0.0786872    0.24243658
   0.24718096   1.56143515   1.57724812   2.26279727   5.93649277
   5.97210711  29.34467425]
beta-B1g nocc = 0
   mo_energy = [0.24718096 1.56143515 5.93649277]
beta-B2g nocc = 0
   mo_energy = [0.24335557 1.57292442 5.96236821]
beta-B3g nocc = 0
   mo_energy = [0.24335557 1.57292442 5.96236821]
beta-B1u nocc = 0
   mo_energy = [-0.628473   -0.10114232  0.08734954  1.53779201 27.48912985]
beta-B2u nocc = 1  HOMO = -1.54829248098714  LUMO = -0.105058318660596
   mo_energy = [-1.54829248 -0.10505832  0.06738004  1.42991677 27.44345906]
beta-B3u nocc = 1  HOMO = -1.54829248098713  LUMO = -0.105058318660596
   mo_energy = [-1.54829248 -0.10505832  0.06738004  1.42991677 27.44345906]
multiplicity <S^2> = 0.75213742  2S+1 = 2.0021363
E1 = -174.955424787204  Ecoul = 47.18805153752625
cycle= 4 E= -127.767373249678  delta_E= -0.000204  |g|= 0.00541  |ddm|= 0.0195
    CPU time for cycle= 4      0.03 sec, wall time      0.01 sec
diis-norm(errvec)=0.00764768
diis-c [-2.25891183e-05  1.00818681e-04  2.24197617e-02 -3.05412163e-01
  1.28289158e+00]
alpha HOMO (B2u) = -1.60764260616232  LUMO (Ag) = -0.174332217450855
alpha irrep_nelec = [2, 0, 0, 0, 1, 1, 1]
beta  irrep_nelec = [2, 0, 0, 0, 0, 1, 1]
alpha-Ag nocc = 2  HOMO = -2.74339394484968  LUMO = -0.174332217450855
   mo_energy = [-33.66064233  -2.74339394  -0.17433222   0.06963009   0.2347949
   0.24737718   1.50334551   1.55739403   2.20543644   5.80542501
   5.91627563  29.28969528]
alpha-B1g nocc = 0
   mo_energy = [0.24737718 1.55739403 5.91627563]
alpha-B2g nocc = 0
   mo_energy = [0.23765825 1.51683407 5.8321292 ]
alpha-B3g nocc = 0
   mo_energy = [0.23765825 1.51683407 5.8321292 ]
alpha-B1u nocc = 1  HOMO = -1.74057635118785  LUMO = -0.109634798416586
   mo_energy = [-1.74057635 -0.1096348   0.05334759  1.342395   27.32848341]
alpha-B2u nocc = 1  HOMO = -1.60764260616232  LUMO = -0.105570541677955
   mo_energy = [-1.60764261 -0.10557054  0.06506278  1.40943268 27.4184073 ]
alpha-B3u nocc = 1  HOMO = -1.60764260616232  LUMO = -0.105570541677955
   mo_energy = [-1.60764261 -0.10557054  0.06506278  1.40943268 27.4184073 ]
beta-Ag nocc = 2  HOMO = -2.51859330909583  LUMO = -0.171038255184948
   mo_energy = [-33.60042429  -2.51859331  -0.17103826   0.07868893   0.24233182
   0.24713358   1.56086386   1.57685984   2.26302875   5.93634378
   5.97206936  29.34410648]
beta-B1g nocc = 0
   mo_energy = [0.24713358 1.56086386 5.93634378]
beta-B2g nocc = 0
   mo_energy = [0.2432606  1.57248621 5.96230541]
beta-B3g nocc = 0
   mo_energy = [0.2432606  1.57248621 5.96230541]
beta-B1u nocc = 0
   mo_energy = [-0.62839358 -0.10115132  0.08733518  1.53766206 27.48828816]
beta-B2u nocc = 1  HOMO = -1.54757950005829  LUMO = -0.105044098858837
   mo_energy = [-1.5475795  -0.1050441   0.06742806  1.43012371 27.44247841]
beta-B3u nocc = 1  HOMO = -1.5475795000583  LUMO = -0.105044098858837
   mo_energy = [-1.5475795  -0.1050441   0.06742806  1.43012371 27.44247841]
multiplicity <S^2> = 0.75230723  2S+1 = 2.0023059
E1 = -174.96053801875922  Ecoul = 47.1931495572713
cycle= 5 E= -127.767388461488  delta_E= -1.52e-05  |g|= 0.00122  |ddm|= 0.00398
    CPU time for cycle= 5      0.03 sec, wall time      0.01 sec
diis-norm(errvec)=0.00172786
diis-c [-3.22160891e-07  6.19902282e-04 -6.16210162e-03  9.39552885e-02
 -5.64867318e-01  1.47645423e+00]
alpha HOMO (B2u) = -1.60810248959882  LUMO (Ag) = -0.174342714216635
alpha irrep_nelec = [2, 0, 0, 0, 1, 1, 1]
beta  irrep_nelec = [2, 0, 0, 0, 0, 1, 1]
alpha-Ag nocc = 2  HOMO = -2.74379634421053  LUMO = -0.174342714216635
   mo_energy = [-33.66088533  -2.74379634  -0.17434271   0.06961469   0.23479601
   0.24739456   1.50339834   1.55744465   2.20526067   5.80521619
   5.91600434  29.28945129]
alpha-B1g nocc = 0
   mo_energy = [0.24739456 1.55744465 5.91600434]
alpha-B2g nocc = 0
   mo_energy = [0.23766244 1.51688829 5.83190638]
alpha-B3g nocc = 0
   mo_energy = [0.23766244 1.51688829 5.83190638]
alpha-B1u nocc = 1  HOMO = -1.74099693079711  LUMO = -0.109647913906804
   mo_energy = [-1.74099693 -0.10964791  0.05330961  1.34218497 27.32831887]
alpha-B2u nocc = 1  HOMO = -1.60810248959882  LUMO = -0.105574783035875
   mo_energy = [-1.60810249 -0.10557478  0.06504172  1.40924763 27.41817655]
alpha-B3u nocc = 1  HOMO = -1.60810248959883  LUMO = -0.105574783035875
   mo_energy = [-1.60810249 -0.10557478  0.06504172  1.40924763 27.41817655]
beta-Ag nocc = 2  HOMO = -2.51831050744343  LUMO = -0.171052769563042
   mo_energy = [-33.60016813  -2.51831051  -0.17105277   0.07866426   0.24227927
   0.24707474   1.56070589   1.57670909   2.26311117   5.93648665
   5.97211961  29.34430931]
beta-B1g nocc = 0
   mo_energy = [0.24707474 1.56070589 5.93648665]
beta-B2g nocc = 0
   mo_energy = [0.24320678 1.5723331  5.96238056]
beta-B3g nocc = 0
   mo_energy = [0.24320678 1.5723331  5.96238056]
beta-B1u nocc = 0
   mo_energy = [-0.62842953 -0.10115351  0.08732919  1.53767617 27.4884309 ]
beta-B2u nocc = 1  HOMO = -1.54709780357112  LUMO = -0.105037738546019
   mo_energy = [-1.5470978  -0.10503774  0.06744856  1.43030081 27.44270382]
beta-B3u nocc = 1  HOMO = -1.54709780357112  LUMO = -0.105037738546019
   mo_energy = [-1.5470978  -0.10503774  0.06744856  1.43030081 27.44270382]
multiplicity <S^2> = 0.75235037  2S+1 = 2.002349
E1 = -174.9603262861968  Ecoul = 47.19293694121719
cycle= 6 E= -127.76738934498  delta_E= -8.83e-07  |g|= 0.000113  |ddm|= 0.000953
    CPU time for cycle= 6      0.03 sec, wall time      0.01 sec
diis-norm(errvec)=0.000160375
diis-c [-7.38552263e-09 -1.27032474e-04  1.24458876e-03 -1.90948442e-02
  1.22105280e-01 -3.74372556e-01  1.27024456e+00]
alpha HOMO (B2u) = -1.6081467795153  LUMO (Ag) = -0.174340827793642
alpha irrep_nelec = [2, 0, 0, 0, 1, 1, 1]
beta  irrep_nelec = [2, 0, 0, 0, 0, 1, 1]
alpha-Ag nocc = 2  HOMO = -2.74381532287137  LUMO = -0.174340827793642
   mo_energy = [-33.66087874  -2.74381532  -0.17434083   0.06961742   0.23479934
   0.24739978   1.50340487   1.55745777   2.20525941   5.80522225
   5.9159939   29.28945448]
alpha-B1g nocc = 0
   mo_energy = [0.24739978 1.55745777 5.9159939 ]
alpha-B2g nocc = 0
   mo_energy = [0.23766605 1.51689673 5.83190872]
alpha-B3g nocc = 0
   mo_energy = [0.23766605 1.51689673 5.83190872]
alpha-B1u nocc = 1  HOMO = -1.74096935701855  LUMO = -0.109646121382346
   mo_energy = [-1.74096936 -0.10964612  0.05331476  1.34220585 27.32833764]
alpha-B2u nocc = 1  HOMO = -1.6081467795153  LUMO = -0.105574798185945
   mo_energy = [-1.60814678 -0.1055748   0.06504137  1.40923444 27.41816963]
alpha-B3u nocc = 1  HOMO = -1.6081467795153  LUMO = -0.105574798185945
   mo_energy = [-1.60814678 -0.1055748   0.06504137  1.40923444 27.41816963]
beta-Ag nocc = 2  HOMO = -2.51828876209661  LUMO = -0.171053059558391
   mo_energy = [-33.60014821  -2.51828876  -0.17105306   0.078664     0.24227943
   0.24707182   1.56070352   1.57671132   2.26311978   5.93651527
   5.9721323   29.3443278 ]
beta-B1g nocc = 0
   mo_energy = [0.24707182 1.56070352 5.93651527]
beta-B2g nocc = 0
   mo_energy = [0.24320632 1.57233375 5.96239743]
beta-B3g nocc = 0
   mo_energy = [0.24320632 1.57233375 5.96239743]
beta-B1u nocc = 0
   mo_energy = [-0.62842572 -0.10115315  0.08733054  1.5376819  27.48843948]
beta-B2u nocc = 1  HOMO = -1.54704558534631  LUMO = -0.105037010184283
   mo_energy = [-1.54704559 -0.10503701  0.06745145  1.43032286 27.44273705]
beta-B3u nocc = 1  HOMO = -1.54704558534632  LUMO = -0.105037010184283
   mo_energy = [-1.54704559 -0.10503701  0.06745145  1.43032286 27.44273705]
multiplicity <S^2> = 0.75235384  2S+1 = 2.0023525
E1 = -174.9602897510611  Ecoul = 47.192900398817955
cycle= 7 E= -127.767389352243  delta_E= -7.26e-09  |g|= 1.63e-05  |ddm|= 7.45e-05
    CPU time for cycle= 7      0.03 sec, wall time      0.01 sec
diis-norm(errvec)=2.30396e-05
diis-c [-4.25023630e-11  1.63952676e-05 -1.87857822e-04  2.86985912e-03
 -1.90393709e-02  6.45094665e-02 -3.40372437e-01  1.29220395e+00]
alpha HOMO (B2u) = -1.60815226723062  LUMO (Ag) = -0.174340754686097
alpha irrep_nelec = [2, 0, 0, 0, 1, 1, 1]
beta  irrep_nelec = [2, 0, 0, 0, 0, 1, 1]
alpha-Ag nocc = 2  HOMO = -2.74381568194965  LUMO = -0.174340754686097
   mo_energy = [-33.66088057  -2.74381568  -0.17434075   0.06961752   0.23479951
   0.24740027   1.50340442   1.55745915   2.20525944   5.80522305
   5.91599231  29.28945333]
alpha-B1g nocc = 0
   mo_energy = [0.24740027 1.55745915 5.91599231]
alpha-B2g nocc = 0
   mo_energy = [0.23766627 1.51689679 5.83190902]
alpha-B3g nocc = 0
   mo_energy = [0.23766627 1.51689679 5.83190902]
alpha-B1u nocc = 1  HOMO = -1.74096060388513  LUMO = -0.109646028623351
   mo_energy = [-1.7409606  -0.10964603  0.05331509  1.34220924 27.32833887]
alpha-B2u nocc = 1  HOMO = -1.60815226723062  LUMO = -0.105575007993138
   mo_energy = [-1.60815227 -0.10557501  0.06504077  1.40923174 27.41816664]
alpha-B3u nocc = 1  HOMO = -1.60815226723062  LUMO = -0.105575007993138
   mo_energy = [-1.60815227 -0.10557501  0.06504077  1.40923174 27.41816664]
beta-Ag nocc = 2  HOMO = -2.51828772979982  LUMO = -0.17105303337662
   mo_energy = [-33.60014804  -2.51828773  -0.17105303   0.07866407   0.24227971
   0.24707144   1.56070259   1.57671194   2.26312037   5.93651696
   5.97213225  29.34432809]
beta-B1g nocc = 0
   mo_energy = [0.24707144 1.56070259 5.93651696]
beta-B2g nocc = 0
   mo_energy = [0.24320646 1.57233396 5.96239788]
beta-B3g nocc = 0
   mo_energy = [0.24320646 1.57233396 5.96239788]
beta-B1u nocc = 0
   mo_energy = [-0.62842556 -0.10115308  0.0873307   1.53768178 27.48843714]
beta-B2u nocc = 1  HOMO = -1.54704310700099  LUMO = -0.105037076753824
   mo_energy = [-1.54704311 -0.10503708  0.06745137  1.43032409 27.44273857]
beta-B3u nocc = 1  HOMO = -1.54704310700099  LUMO = -0.105037076753825
   mo_energy = [-1.54704311 -0.10503708  0.06745137  1.43032409 27.44273857]
multiplicity <S^2> = 0.75235434  2S+1 = 2.002353
E1 = -174.96029776334635  Ecoul = 47.19290841096023
cycle= 8 E= -127.767389352386  delta_E= -1.43e-10  |g|= 8.74e-07  |ddm|= 1.32e-05
    CPU time for cycle= 8      0.03 sec, wall time      0.01 sec
diis-norm(errvec)=1.23559e-06
diis-c [-2.19722701e-13 -1.29688838e-06  2.14470154e-05 -3.33842338e-04
  2.23736834e-03 -7.84661413e-03  4.75896557e-02 -2.09856372e-01
  1.16818965e+00]
alpha HOMO (B3u) = -1.60815227062481  LUMO (Ag) = -0.174340733933061
alpha irrep_nelec = [2, 0, 0, 0, 1, 1, 1]
beta  irrep_nelec = [2, 0, 0, 0, 0, 1, 1]
alpha-Ag nocc = 2  HOMO = -2.74381548117867  LUMO = -0.174340733933061
   mo_energy = [-33.6608803   -2.74381548  -0.17434073   0.06961755   0.23479951
   0.24740028   1.50340444   1.55745925   2.20525959   5.80522319
   5.91599241  29.28945359]
alpha-B1g nocc = 0
   mo_energy = [0.24740028 1.55745925 5.91599241]
alpha-B2g nocc = 0
   mo_energy = [0.23766628 1.51689682 5.83190915]
alpha-B3g nocc = 0
   mo_energy = [0.23766628 1.51689682 5.83190915]
alpha-B1u nocc = 1  HOMO = -1.74096050761899  LUMO = -0.109645998976651
   mo_energy = [-1.74096051 -0.109646    0.05331516  1.34220943 27.32833924]
alpha-B2u nocc = 1  HOMO = -1.60815227062481  LUMO = -0.105574998170208
   mo_energy = [-1.60815227 -0.105575    0.06504079  1.40923176 27.41816694]
alpha-B3u nocc = 1  HOMO = -1.60815227062481  LUMO = -0.105574998170208
   mo_energy = [-1.60815227 -0.105575    0.06504079  1.40923176 27.41816694]
beta-Ag nocc = 2  HOMO = -2.51828736148442  LUMO = -0.171053010122067
   mo_energy = [-33.60014759  -2.51828736  -0.17105301   0.07866411   0.24227973
   0.24707145   1.56070261   1.57671203   2.26312054   5.93651707
   5.97213238  29.34432847]
beta-B1g nocc = 0
   mo_energy = [0.24707145 1.56070261 5.93651707]
beta-B2g nocc = 0
   mo_energy = [0.24320648 1.57233403 5.962398  ]
beta-B3g nocc = 0
   mo_energy = [0.24320648 1.57233403 5.962398  ]
beta-B1u nocc = 0
   mo_energy = [-0.62842538 -0.10115307  0.08733074  1.53768191 27.48843742]
beta-B2u nocc = 1  HOMO = -1.54704308871433  LUMO = -0.105037071505856
   mo_energy = [-1.54704309 -0.10503707  0.06745139  1.43032408 27.44273888]
beta-B3u nocc = 1  HOMO = -1.54704308871434  LUMO = -0.105037071505856
   mo_energy = [-1.54704309 -0.10503707  0.06745139  1.43032408 27.44273888]
multiplicity <S^2> = 0.75235435  2S+1 = 2.002353
E1 = -174.9602964436845  Ecoul = 47.19290709129821
cycle= 9 E= -127.767389352386  delta_E= -1.85e-13  |g|= 5.07e-08  |ddm|= 5.68e-07
    CPU time for cycle= 9      0.03 sec, wall time      0.01 sec
diis-norm(errvec)=7.17605e-08
diis-c [-8.57900015e-16  1.10556069e+00 -1.08191827e-06  1.74414443e-05
 -1.14799270e-04  4.14551447e-04 -2.81798109e-03  1.35518931e-02
 -1.16610711e-01]
alpha HOMO (B2u) = -1.60815229357118  LUMO (Ag) = -0.174340738496975
alpha irrep_nelec = [2, 0, 0, 0, 1, 1, 1]
beta  irrep_nelec = [2, 0, 0, 0, 0, 1, 1]
alpha-Ag nocc = 2  HOMO = -2.74381549811017  LUMO = -0.174340738496975
   mo_energy = [-33.66088033  -2.7438155   -0.17434074   0.06961754   0.23479951
   0.24740027   1.50340443   1.55745924   2.20525958   5.80522316
   5.91599238  29.28945356]
alpha-B1g nocc = 0
   mo_energy = [0.24740027 1.55745924 5.91599238]
alpha-B2g nocc = 0
   mo_energy = [0.23766627 1.51689681 5.83190912]
alpha-B3g nocc = 0
   mo_energy = [0.23766627 1.51689681 5.83190912]
alpha-B1u nocc = 1  HOMO = -1.74096050768837  LUMO = -0.109646001167864
   mo_energy = [-1.74096051 -0.109646    0.05331516  1.34220942 27.32833921]
alpha-B2u nocc = 1  HOMO = -1.60815229357118  LUMO = -0.105574999904726
   mo_energy = [-1.60815229 -0.105575    0.06504079  1.40923174 27.4181669 ]
alpha-B3u nocc = 1  HOMO = -1.60815229357118  LUMO = -0.105574999904726
   mo_energy = [-1.60815229 -0.105575    0.06504079  1.40923174 27.4181669 ]
beta-Ag nocc = 2  HOMO = -2.5182873780216  LUMO = -0.171053011464784
   mo_energy = [-33.60014763  -2.51828738  -0.17105301   0.07866411   0.24227973
   0.24707145   1.5607026    1.57671202   2.26312054   5.93651704
   5.97213235  29.34432844]
beta-B1g nocc = 0
   mo_energy = [0.24707145 1.5607026  5.93651704]
beta-B2g nocc = 0
   mo_energy = [0.24320648 1.57233401 5.96239797]
beta-B3g nocc = 0
   mo_energy = [0.24320648 1.57233401 5.96239797]
beta-B1u nocc = 0
   mo_energy = [-0.6284254  -0.10115307  0.08733073  1.53768189 27.48843738]
beta-B2u nocc = 1  HOMO = -1.54704312677007  LUMO = -0.105037072657287
   mo_energy = [-1.54704313 -0.10503707  0.06745138  1.43032406 27.44273885]
beta-B3u nocc = 1  HOMO = -1.54704312677007  LUMO = -0.105037072657287
   mo_energy = [-1.54704313 -0.10503707  0.06745138  1.43032406 27.44273885]
multiplicity <S^2> = 0.75235435  2S+1 = 2.002353
E1 = -174.96029650950726  Ecoul = 47.19290715712088
cycle= 10 E= -127.767389352386  delta_E= -7.11e-14  |g|= 3.1e-09  |ddm|= 3.26e-08
    CPU time for cycle= 10      0.03 sec, wall time      0.01 sec
diis-norm(errvec)=4.37856e-09
Linear dependence found in DIIS error vectors.
diis-c [-5.21658925e-16  4.98211433e-01  5.33391335e-01  1.15675151e-06
 -9.95628075e-06  4.41183553e-05 -4.11121392e-04  2.35750650e-03
 -3.35844720e-02]
alpha HOMO (B3u) = -1.60815229488279  LUMO (Ag) = -0.174340738536836
alpha irrep_nelec = [2, 0, 0, 0, 1, 1, 1]
beta  irrep_nelec = [2, 0, 0, 0, 0, 1, 1]
alpha-Ag nocc = 2  HOMO = -2.74381549981921  LUMO = -0.174340738536836
   mo_energy = [-33.66088033  -2.7438155   -0.17434074   0.06961754   0.23479951
   0.24740027   1.50340443   1.55745924   2.20525958   5.80522316
   5.91599238  29.28945355]
alpha-B1g nocc = 0
   mo_energy = [0.24740027 1.55745924 5.91599238]
alpha-B2g nocc = 0
   mo_energy = [0.23766627 1.51689681 5.83190912]
alpha-B3g nocc = 0
   mo_energy = [0.23766627 1.51689681 5.83190912]
alpha-B1u nocc = 1  HOMO = -1.74096050918229  LUMO = -0.109646001150677
   mo_energy = [-1.74096051 -0.109646    0.05331516  1.34220942 27.3283392 ]
alpha-B2u nocc = 1  HOMO = -1.60815229488279  LUMO = -0.105574999904861
   mo_energy = [-1.60815229 -0.105575    0.06504079  1.40923174 27.4181669 ]
alpha-B3u nocc = 1  HOMO = -1.60815229488279  LUMO = -0.105574999904861
   mo_energy = [-1.60815229 -0.105575    0.06504079  1.40923174 27.4181669 ]
beta-Ag nocc = 2  HOMO = -2.51828737936221  LUMO = -0.171053011507388
   mo_energy = [-33.60014764  -2.51828738  -0.17105301   0.07866411   0.24227973
   0.24707145   1.5607026    1.57671202   2.26312054   5.93651704
   5.97213235  29.34432843]
beta-B1g nocc = 0
   mo_energy = [0.24707145 1.5607026  5.93651704]
beta-B2g nocc = 0
   mo_energy = [0.24320648 1.57233401 5.96239797]
beta-B3g nocc = 0
   mo_energy = [0.24320648 1.57233401 5.96239797]
beta-B1u nocc = 0
   mo_energy = [-0.6284254  -0.10115307  0.08733073  1.53768189 27.48843737]
beta-B2u nocc = 1  HOMO = -1.54704312816803  LUMO = -0.105037072675565
   mo_energy = [-1.54704313 -0.10503707  0.06745138  1.43032406 27.44273884]
beta-B3u nocc = 1  HOMO = -1.54704312816803  LUMO = -0.105037072675565
   mo_energy = [-1.54704313 -0.10503707  0.06745138  1.43032406 27.44273884]
multiplicity <S^2> = 0.75235435  2S+1 = 2.002353
E1 = -174.96029651544876  Ecoul = 47.19290716306247
cycle= 11 E= -127.767389352386  delta_E= 8.53e-14  |g|= 2.56e-09  |ddm|= 9.7e-10
    CPU time for cycle= 11      0.03 sec, wall time      0.01 sec
diis-norm(errvec)=3.61513e-09
Linear dependence found in DIIS error vectors.
diis-c [-4.72828094e-16  3.31187689e-01  3.38545027e-01  3.37833255e-01
 -4.71116950e-07  1.74586199e-07  4.45677215e-05 -2.60634440e-04
 -7.34960694e-03]
alpha HOMO (B3u) = -1.60815229555317  LUMO (Ag) = -0.174340738510058
alpha irrep_nelec = [2, 0, 0, 0, 1, 1, 1]
beta  irrep_nelec = [2, 0, 0, 0, 0, 1, 1]
alpha-Ag nocc = 2  HOMO = -2.74381550073178  LUMO = -0.174340738510058
   mo_energy = [-33.66088034  -2.7438155   -0.17434074   0.06961754   0.23479951
   0.24740027   1.50340443   1.55745924   2.20525958   5.80522316
   5.91599238  29.28945355]
alpha-B1g nocc = 0
   mo_energy = [0.24740027 1.55745924 5.91599238]
alpha-B2g nocc = 0
   mo_energy = [0.23766627 1.51689681 5.83190912]
alpha-B3g nocc = 0
   mo_energy = [0.23766627 1.51689681 5.83190912]
alpha-B1u nocc = 1  HOMO = -1.74096051021072  LUMO = -0.109646001154297
   mo_energy = [-1.74096051 -0.109646    0.05331516  1.34220942 27.3283392 ]
alpha-B2u nocc = 1  HOMO = -1.60815229555317  LUMO = -0.105574999901268
   mo_energy = [-1.6081523  -0.105575    0.06504079  1.40923174 27.4181669 ]
alpha-B3u nocc = 1  HOMO = -1.60815229555317  LUMO = -0.105574999901268
   mo_energy = [-1.6081523  -0.105575    0.06504079  1.40923174 27.4181669 ]
beta-Ag nocc = 2  HOMO = -2.51828738000636  LUMO = -0.171053011500293
   mo_energy = [-33.60014764  -2.51828738  -0.17105301   0.07866411   0.24227973
   0.24707145   1.5607026    1.57671202   2.26312053   5.93651704
   5.97213235  29.34432843]
beta-B1g nocc = 0
   mo_energy = [0.24707145 1.5607026  5.93651704]
beta-B2g nocc = 0
   mo_energy = [0.24320648 1.57233401 5.96239797]
beta-B3g nocc = 0
   mo_energy = [0.24320648 1.57233401 5.96239797]
beta-B1u nocc = 0
   mo_energy = [-0.6284254  -0.10115307  0.08733073  1.53768189 27.48843737]
beta-B2u nocc = 1  HOMO = -1.54704312876005  LUMO = -0.105037072673685
   mo_energy = [-1.54704313 -0.10503707  0.06745138  1.43032406 27.44273884]
beta-B3u nocc = 1  HOMO = -1.54704312876005  LUMO = -0.105037072673685
   mo_energy = [-1.54704313 -0.10503707  0.06745138  1.43032406 27.44273884]
multiplicity <S^2> = 0.75235435  2S+1 = 2.002353
E1 = -174.96029652038783  Ecoul = 47.19290716800148
cycle= 12 E= -127.767389352386  delta_E= -5.68e-14  |g|= 3.71e-09  |ddm|= 7.02e-10
    CPU time for cycle= 12      0.03 sec, wall time      0.01 sec
diis-norm(errvec)=5.25159e-09
Linear dependence found in DIIS error vectors.
diis-c [-2.25927233e-16  2.48153042e-01  2.53115345e-01  2.52691479e-01
  2.52209905e-01 -1.50356998e-06  4.19947437e-05 -2.13859498e-04
 -5.99640312e-03]
alpha HOMO (B3u) = -1.60815229508221  LUMO (Ag) = -0.17434073852523
alpha irrep_nelec = [2, 0, 0, 0, 1, 1, 1]
beta  irrep_nelec = [2, 0, 0, 0, 0, 1, 1]
alpha-Ag nocc = 2  HOMO = -2.74381550023685  LUMO = -0.17434073852523
   mo_energy = [-33.66088034  -2.7438155   -0.17434074   0.06961754   0.23479951
   0.24740027   1.50340443   1.55745924   2.20525958   5.80522316
   5.91599238  29.28945355]
alpha-B1g nocc = 0
   mo_energy = [0.24740027 1.55745924 5.91599238]
alpha-B2g nocc = 0
   mo_energy = [0.23766627 1.51689681 5.83190912]
alpha-B3g nocc = 0
   mo_energy = [0.23766627 1.51689681 5.83190912]
alpha-B1u nocc = 1  HOMO = -1.74096050946314  LUMO = -0.109646001147185
   mo_energy = [-1.74096051 -0.109646    0.05331516  1.34220942 27.3283392 ]
alpha-B2u nocc = 1  HOMO = -1.60815229508221  LUMO = -0.105574999902563
   mo_energy = [-1.6081523  -0.105575    0.06504079  1.40923174 27.4181669 ]
alpha-B3u nocc = 1  HOMO = -1.60815229508221  LUMO = -0.105574999902563
   mo_energy = [-1.6081523  -0.105575    0.06504079  1.40923174 27.4181669 ]
beta-Ag nocc = 2  HOMO = -2.51828737951222  LUMO = -0.171053011492762
   mo_energy = [-33.60014764  -2.51828738  -0.17105301   0.07866411   0.24227973
   0.24707145   1.5607026    1.57671202   2.26312054   5.93651704
   5.97213235  29.34432843]
beta-B1g nocc = 0
   mo_energy = [0.24707145 1.5607026  5.93651704]
beta-B2g nocc = 0
   mo_energy = [0.24320648 1.57233401 5.96239797]
beta-B3g nocc = 0
   mo_energy = [0.24320648 1.57233401 5.96239797]
beta-B1u nocc = 0
   mo_energy = [-0.6284254  -0.10115307  0.08733073  1.53768189 27.48843737]
beta-B2u nocc = 1  HOMO = -1.54704312847688  LUMO = -0.105037072675414
   mo_energy = [-1.54704313 -0.10503707  0.06745138  1.43032406 27.44273884]
beta-B3u nocc = 1  HOMO = -1.54704312847687  LUMO = -0.105037072675414
   mo_energy = [-1.54704313 -0.10503707  0.06745138  1.43032406 27.44273884]
multiplicity <S^2> = 0.75235435  2S+1 = 2.002353
E1 = -174.96029651813447  Ecoul = 47.19290716574811
cycle= 13 E= -127.767389352386  delta_E= -1.42e-14  |g|= 2.79e-09  |ddm|= 5.05e-10
    CPU time for cycle= 13      0.03 sec, wall time      0.01 sec
diis-norm(errvec)=3.94289e-09
Linear dependence found in DIIS error vectors.
diis-c [-1.70278880e-16  1.97911428e-01  2.02312159e-01  2.02001166e-01
  2.01652484e-01  2.01826465e-01  1.28487565e-05 -5.14379988e-05
 -5.66511269e-03]
alpha HOMO (B3u) = -1.60815229482233  LUMO (Ag) = -0.174340738535236
alpha irrep_nelec = [2, 0, 0, 0, 1, 1, 1]
beta  irrep_nelec = [2, 0, 0, 0, 0, 1, 1]
alpha-Ag nocc = 2  HOMO = -2.74381549996875  LUMO = -0.174340738535236
   mo_energy = [-33.66088034  -2.7438155   -0.17434074   0.06961754   0.23479951
   0.24740027   1.50340443   1.55745924   2.20525958   5.80522316
   5.91599238  29.28945355]
alpha-B1g nocc = 0
   mo_energy = [0.24740027 1.55745924 5.91599238]
alpha-B2g nocc = 0
   mo_energy = [0.23766627 1.51689681 5.83190912]
alpha-B3g nocc = 0
   mo_energy = [0.23766627 1.51689681 5.83190912]
alpha-B1u nocc = 1  HOMO = -1.74096050900953  LUMO = -0.109646001141852
   mo_energy = [-1.74096051 -0.109646    0.05331516  1.34220942 27.3283392 ]
alpha-B2u nocc = 1  HOMO = -1.60815229482234  LUMO = -0.105574999903693
   mo_energy = [-1.60815229 -0.105575    0.06504079  1.40923174 27.4181669 ]
alpha-B3u nocc = 1  HOMO = -1.60815229482233  LUMO = -0.105574999903693
   mo_energy = [-1.60815229 -0.105575    0.06504079  1.40923174 27.4181669 ]
beta-Ag nocc = 2  HOMO = -2.51828737931074  LUMO = -0.171053011488402
   mo_energy = [-33.60014764  -2.51828738  -0.17105301   0.07866411   0.24227973
   0.24707145   1.5607026    1.57671202   2.26312054   5.93651704
   5.97213235  29.34432843]
beta-B1g nocc = 0
   mo_energy = [0.24707145 1.5607026  5.93651704]
beta-B2g nocc = 0
   mo_energy = [0.24320648 1.57233401 5.96239797]
beta-B3g nocc = 0
   mo_energy = [0.24320648 1.57233401 5.96239797]
beta-B1u nocc = 0
   mo_energy = [-0.6284254  -0.10115307  0.08733073  1.53768189 27.48843737]
beta-B2u nocc = 1  HOMO = -1.54704312841895  LUMO = -0.105037072677805
   mo_energy = [-1.54704313 -0.10503707  0.06745138  1.43032406 27.44273884]
beta-B3u nocc = 1  HOMO = -1.54704312841895  LUMO = -0.105037072677805
   mo_energy = [-1.54704313 -0.10503707  0.06745138  1.43032406 27.44273884]
multiplicity <S^2> = 0.75235435  2S+1 = 2.002353
E1 = -174.96029651707704  Ecoul = 47.19290716469063
cycle= 14 E= -127.767389352386  delta_E= -4.26e-14  |g|= 2.28e-09  |ddm|= 3.93e-10
    CPU time for cycle= 14      0.03 sec, wall time      0.01 sec
diis-norm(errvec)=3.22971e-09
Linear dependence found in DIIS error vectors.
diis-c [-1.11027682e-15  1.64326909e-01  1.68472477e-01  1.68273132e-01
  1.68029781e-01  1.68154206e-01  1.68220370e-01  3.61942469e-05
 -5.51306955e-03]
alpha HOMO (B3u) = -1.60815229476996  LUMO (Ag) = -0.174340738543096
alpha irrep_nelec = [2, 0, 0, 0, 1, 1, 1]
beta  irrep_nelec = [2, 0, 0, 0, 0, 1, 1]
alpha-Ag nocc = 2  HOMO = -2.74381549990312  LUMO = -0.174340738543096
   mo_energy = [-33.66088034  -2.7438155   -0.17434074   0.06961754   0.23479951
   0.24740027   1.50340443   1.55745924   2.20525958   5.80522316
   5.91599238  29.28945355]
alpha-B1g nocc = 0
   mo_energy = [0.24740027 1.55745924 5.91599238]
alpha-B2g nocc = 0
   mo_energy = [0.23766627 1.51689681 5.83190912]
alpha-B3g nocc = 0
   mo_energy = [0.23766627 1.51689681 5.83190912]
alpha-B1u nocc = 1  HOMO = -1.74096050886309  LUMO = -0.109646001141843
   mo_energy = [-1.74096051 -0.109646    0.05331516  1.34220942 27.3283392 ]
alpha-B2u nocc = 1  HOMO = -1.60815229476996  LUMO = -0.105574999905193
   mo_energy = [-1.60815229 -0.105575    0.06504079  1.40923174 27.4181669 ]
alpha-B3u nocc = 1  HOMO = -1.60815229476996  LUMO = -0.105574999905193
   mo_energy = [-1.60815229 -0.105575    0.06504079  1.40923174 27.4181669 ]
beta-Ag nocc = 2  HOMO = -2.51828737906943  LUMO = -0.171053011487362
   mo_energy = [-33.60014764  -2.51828738  -0.17105301   0.07866411   0.24227973
   0.24707145   1.5607026    1.57671202   2.26312054   5.93651704
   5.97213235  29.34432843]
beta-B1g nocc = 0
   mo_energy = [0.24707145 1.5607026  5.93651704]
beta-B2g nocc = 0
   mo_energy = [0.24320648 1.57233401 5.96239797]
beta-B3g nocc = 0
   mo_energy = [0.24320648 1.57233401 5.96239797]
beta-B1u nocc = 0
   mo_energy = [-0.6284254  -0.10115307  0.08733073  1.53768189 27.48843737]
beta-B2u nocc = 1  HOMO = -1.54704312825389  LUMO = -0.105037072677442
   mo_energy = [-1.54704313 -0.10503707  0.06745138  1.43032406 27.44273884]
beta-B3u nocc = 1  HOMO = -1.54704312825389  LUMO = -0.105037072677442
   mo_energy = [-1.54704313 -0.10503707  0.06745138  1.43032406 27.44273884]
multiplicity <S^2> = 0.75235435  2S+1 = 2.002353
E1 = -174.96029651636977  Ecoul = 47.19290716398345
cycle= 15 E= -127.767389352386  delta_E= 8.53e-14  |g|= 1.98e-09  |ddm|= 4.11e-10
    CPU time for cycle= 15      0.03 sec, wall time      0.01 sec
diis-norm(errvec)=2.80324e-09
Linear dependence found in DIIS error vectors.
diis-c [-9.32865573e-17  1.40540184e-01  1.44160551e-01  1.44010961e-01
  1.43836807e-01  1.43923466e-01  1.43969826e-01  1.43999921e-01
 -4.44171668e-03]
alpha HOMO (B3u) = -1.60815229457141  LUMO (Ag) = -0.174340738537938
alpha irrep_nelec = [2, 0, 0, 0, 1, 1, 1]
beta  irrep_nelec = [2, 0, 0, 0, 0, 1, 1]
alpha-Ag nocc = 2  HOMO = -2.74381549966886  LUMO = -0.174340738537938
   mo_energy = [-33.66088033  -2.7438155   -0.17434074   0.06961754   0.23479951
   0.24740027   1.50340443   1.55745924   2.20525958   5.80522316
   5.91599238  29.28945355]
alpha-B1g nocc = 0
   mo_energy = [0.24740027 1.55745924 5.91599238]
alpha-B2g nocc = 0
   mo_energy = [0.23766627 1.51689681 5.83190912]
alpha-B3g nocc = 0
   mo_energy = [0.23766627 1.51689681 5.83190912]
alpha-B1u nocc = 1  HOMO = -1.74096050850314  LUMO = -0.109646001136481
   mo_energy = [-1.74096051 -0.109646    0.05331516  1.34220942 27.3283392 ]
alpha-B2u nocc = 1  HOMO = -1.60815229457141  LUMO = -0.105574999904761
   mo_energy = [-1.60815229 -0.105575    0.06504079  1.40923174 27.4181669 ]
alpha-B3u nocc = 1  HOMO = -1.60815229457141  LUMO = -0.10557499990476
   mo_energy = [-1.60815229 -0.105575    0.06504079  1.40923174 27.4181669 ]
beta-Ag nocc = 2  HOMO = -2.51828737876522  LUMO = -0.171053011479987
   mo_energy = [-33.60014764  -2.51828738  -0.17105301   0.07866411   0.24227973
   0.24707145   1.5607026    1.57671202   2.26312054   5.93651704
   5.97213235  29.34432844]
beta-B1g nocc = 0
   mo_energy = [0.24707145 1.5607026  5.93651704]
beta-B2g nocc = 0
   mo_energy = [0.24320648 1.57233401 5.96239797]
beta-B3g nocc = 0
   mo_energy = [0.24320648 1.57233401 5.96239797]
beta-B1u nocc = 0
   mo_energy = [-0.6284254  -0.10115307  0.08733073  1.53768189 27.48843737]
beta-B2u nocc = 1  HOMO = -1.54704312798236  LUMO = -0.105037072675873
   mo_energy = [-1.54704313 -0.10503707  0.06745138  1.43032406 27.44273884]
beta-B3u nocc = 1  HOMO = -1.54704312798236  LUMO = -0.105037072675873
   mo_energy = [-1.54704313 -0.10503707  0.06745138  1.43032406 27.44273884]
multiplicity <S^2> = 0.75235435  2S+1 = 2.002353
E1 = -174.96029651543233  Ecoul = 47.19290716304597
cycle= 16 E= -127.767389352386  delta_E= -4.26e-14  |g|= 1.65e-09  |ddm|= 2.5e-10
    CPU time for cycle= 16      0.03 sec, wall time      0.01 sec
diis-norm(errvec)=2.33994e-09
Linear dependence found in DIIS error vectors.
diis-c [-3.92523115e-17  1.25000000e-01  1.25000000e-01  1.25000000e-01
  1.25000000e-01  1.25000000e-01  1.25000000e-01  1.25000000e-01
  1.25000000e-01]
alpha HOMO (B3u) = -1.60815229392223  LUMO (Ag) = -0.174340738517278
alpha irrep_nelec = [2, 0, 0, 0, 1, 1, 1]
beta  irrep_nelec = [2, 0, 0, 0, 0, 1, 1]
alpha-Ag nocc = 2  HOMO = -2.74381549923884  LUMO = -0.174340738517278
   mo_energy = [-33.66088033  -2.7438155   -0.17434074   0.06961754   0.23479951
   0.24740027   1.50340443   1.55745924   2.20525958   5.80522316
   5.91599238  29.28945356]
alpha-B1g nocc = 0
   mo_energy = [0.24740027 1.55745924 5.91599238]
alpha-B2g nocc = 0
   mo_energy = [0.23766627 1.51689681 5.83190912]
alpha-B3g nocc = 0
   mo_energy = [0.23766627 1.51689681 5.83190912]
alpha-B1u nocc = 1  HOMO = -1.74096050821167  LUMO = -0.10964600113821
   mo_energy = [-1.74096051 -0.109646    0.05331516  1.34220942 27.3283392 ]
alpha-B2u nocc = 1  HOMO = -1.60815229392224  LUMO = -0.105574999894783
   mo_energy = [-1.60815229 -0.105575    0.06504079  1.40923174 27.4181669 ]
alpha-B3u nocc = 1  HOMO = -1.60815229392223  LUMO = -0.105574999894783
   mo_energy = [-1.60815229 -0.105575    0.06504079  1.40923174 27.4181669 ]
beta-Ag nocc = 2  HOMO = -2.5182873783519  LUMO = -0.171053011473752
   mo_energy = [-33.60014764  -2.51828738  -0.17105301   0.07866411   0.24227973
   0.24707145   1.5607026    1.57671202   2.26312054   5.93651704
   5.97213235  29.34432844]
beta-B1g nocc = 0
   mo_energy = [0.24707145 1.5607026  5.93651704]
beta-B2g nocc = 0
   mo_energy = [0.24320648 1.57233401 5.96239797]
beta-B3g nocc = 0
   mo_energy = [0.24320648 1.57233401 5.96239797]
beta-B1u nocc = 0
   mo_energy = [-0.6284254  -0.10115307  0.08733073  1.53768189 27.48843738]
beta-B2u nocc = 1  HOMO = -1.54704312733908  LUMO = -0.105037072667431
   mo_energy = [-1.54704313 -0.10503707  0.06745138  1.43032406 27.44273884]
beta-B3u nocc = 1  HOMO = -1.54704312733908  LUMO = -0.105037072667431
   mo_energy = [-1.54704313 -0.10503707  0.06745138  1.43032406 27.44273884]
multiplicity <S^2> = 0.75235435  2S+1 = 2.002353
E1 = -174.9602965138477  Ecoul = 47.19290716146141
cycle= 17 E= -127.767389352386  delta_E= 7.11e-14  |g|= 1.6e-09  |ddm|= 4.38e-10
    CPU time for cycle= 17      0.03 sec, wall time      0.01 sec
diis-norm(errvec)=2.26376e-09
Linear dependence found in DIIS error vectors.
diis-c [-2.89052492e-16  1.25000000e-01  1.25000000e-01  1.25000000e-01
  1.25000000e-01  1.25000000e-01  1.25000000e-01  1.25000000e-01
  1.25000000e-01]
alpha HOMO (B3u) = -1.60815229332334  LUMO (Ag) = -0.174340738532746
alpha irrep_nelec = [2, 0, 0, 0, 1, 1, 1]
beta  irrep_nelec = [2, 0, 0, 0, 0, 1, 1]
alpha-Ag nocc = 2  HOMO = -2.74381549849187  LUMO = -0.174340738532746
   mo_energy = [-33.66088033  -2.7438155   -0.17434074   0.06961754   0.23479951
   0.24740027   1.50340443   1.55745924   2.20525958   5.80522316
   5.91599238  29.28945356]
alpha-B1g nocc = 0
   mo_energy = [0.24740027 1.55745924 5.91599238]
alpha-B2g nocc = 0
   mo_energy = [0.23766627 1.51689681 5.83190912]
alpha-B3g nocc = 0
   mo_energy = [0.23766627 1.51689681 5.83190912]
alpha-B1u nocc = 1  HOMO = -1.74096050716832  LUMO = -0.109646001123694
   mo_energy = [-1.74096051 -0.109646    0.05331516  1.34220942 27.32833921]
alpha-B2u nocc = 1  HOMO = -1.60815229332334  LUMO = -0.105574999899039
   mo_energy = [-1.60815229 -0.105575    0.06504079  1.40923174 27.4181669 ]
alpha-B3u nocc = 1  HOMO = -1.60815229332334  LUMO = -0.105574999899039
   mo_energy = [-1.60815229 -0.105575    0.06504079  1.40923174 27.4181669 ]
beta-Ag nocc = 2  HOMO = -2.51828737742824  LUMO = -0.17105301144739
   mo_energy = [-33.60014763  -2.51828738  -0.17105301   0.07866411   0.24227973
   0.24707145   1.5607026    1.57671202   2.26312054   5.93651704
   5.97213235  29.34432844]
beta-B1g nocc = 0
   mo_energy = [0.24707145 1.5607026  5.93651704]
beta-B2g nocc = 0
   mo_energy = [0.24320648 1.57233401 5.96239797]
beta-B3g nocc = 0
   mo_energy = [0.24320648 1.57233401 5.96239797]
beta-B1u nocc = 0
   mo_energy = [-0.6284254  -0.10115307  0.08733073  1.53768189 27.48843738]
beta-B2u nocc = 1  HOMO = -1.54704312702529  LUMO = -0.105037072671251
   mo_energy = [-1.54704313 -0.10503707  0.06745138  1.43032406 27.44273885]
beta-B3u nocc = 1  HOMO = -1.54704312702528  LUMO = -0.105037072671251
   mo_energy = [-1.54704313 -0.10503707  0.06745138  1.43032406 27.44273885]
multiplicity <S^2> = 0.75235435  2S+1 = 2.002353
E1 = -174.96029651085047  Ecoul = 47.19290715846401
cycle= 18 E= -127.767389352386  delta_E= -1.71e-13  |g|= 5.62e-10  |ddm|= 1.24e-09
    CPU time for cycle= 18      0.03 sec, wall time      0.01 sec
diis-norm(errvec)=7.94434e-10
Linear dependence found in DIIS error vectors.
diis-c [-2.89052492e-16  1.25000000e-01  1.25000000e-01  1.25000000e-01
  1.25000000e-01  1.25000000e-01  1.25000000e-01  1.25000000e-01
  1.25000000e-01]
alpha HOMO (B2u) = -1.60815229329656  LUMO (Ag) = -0.174340738533861
alpha irrep_nelec = [2, 0, 0, 0, 1, 1, 1]
beta  irrep_nelec = [2, 0, 0, 0, 0, 1, 1]
alpha-Ag nocc = 2  HOMO = -2.74381549848031  LUMO = -0.174340738533861
   mo_energy = [-33.66088033  -2.7438155   -0.17434074   0.06961754   0.23479951
   0.24740027   1.50340443   1.55745924   2.20525958   5.80522316
   5.91599238  29.28945356]
alpha-B1g nocc = 0
   mo_energy = [0.24740027 1.55745924 5.91599238]
alpha-B2g nocc = 0
   mo_energy = [0.23766627 1.51689681 5.83190912]
alpha-B3g nocc = 0
   mo_energy = [0.23766627 1.51689681 5.83190912]
alpha-B1u nocc = 1  HOMO = -1.7409605071276  LUMO = -0.109646001123067
   mo_energy = [-1.74096051 -0.109646    0.05331516  1.34220942 27.32833921]
alpha-B2u nocc = 1  HOMO = -1.60815229329656  LUMO = -0.105574999899004
   mo_energy = [-1.60815229 -0.105575    0.06504079  1.40923174 27.4181669 ]
alpha-B3u nocc = 1  HOMO = -1.60815229329656  LUMO = -0.105574999899004
   mo_energy = [-1.60815229 -0.105575    0.06504079  1.40923174 27.4181669 ]
beta-Ag nocc = 2  HOMO = -2.51828737740997  LUMO = -0.171053011445958
   mo_energy = [-33.60014763  -2.51828738  -0.17105301   0.07866411   0.24227973
   0.24707145   1.5607026    1.57671202   2.26312054   5.93651704
   5.97213235  29.34432844]
beta-B1g nocc = 0
   mo_energy = [0.24707145 1.5607026  5.93651704]
beta-B2g nocc = 0
   mo_energy = [0.24320648 1.57233401 5.96239797]
beta-B3g nocc = 0
   mo_energy = [0.24320648 1.57233401 5.96239797]
beta-B1u nocc = 0
   mo_energy = [-0.6284254  -0.10115307  0.08733073  1.53768189 27.48843738]
beta-B2u nocc = 1  HOMO = -1.54704312703716  LUMO = -0.105037072671565
   mo_energy = [-1.54704313 -0.10503707  0.06745138  1.43032406 27.44273885]
beta-B3u nocc = 1  HOMO = -1.54704312703716  LUMO = -0.105037072671565
   mo_energy = [-1.54704313 -0.10503707  0.06745138  1.43032406 27.44273885]
multiplicity <S^2> = 0.75235435  2S+1 = 2.002353
E1 = -174.9602965108199  Ecoul = 47.1929071584336
cycle= 19 E= -127.767389352386  delta_E= 1.71e-13  |g|= 5.25e-10  |ddm|= 4.27e-11
    CPU time for cycle= 19      0.03 sec, wall time      0.01 sec
diis-norm(errvec)=7.42965e-10
Linear dependence found in DIIS error vectors.
diis-c [-2.89052492e-16  1.25000000e-01  1.25000000e-01  1.25000000e-01
  1.25000000e-01  1.25000000e-01  1.25000000e-01  1.25000000e-01
  1.25000000e-01]
alpha HOMO (B3u) = -1.60815229333555  LUMO (Ag) = -0.174340738536157
alpha irrep_nelec = [2, 0, 0, 0, 1, 1, 1]
beta  irrep_nelec = [2, 0, 0, 0, 0, 1, 1]
alpha-Ag nocc = 2  HOMO = -2.74381549852695  LUMO = -0.174340738536157
   mo_energy = [-33.66088033  -2.7438155   -0.17434074   0.06961754   0.23479951
   0.24740027   1.50340443   1.55745924   2.20525958   5.80522316
   5.91599238  29.28945356]
alpha-B1g nocc = 0
   mo_energy = [0.24740027 1.55745924 5.91599238]
alpha-B2g nocc = 0
   mo_energy = [0.23766627 1.51689681 5.83190912]
alpha-B3g nocc = 0
   mo_energy = [0.23766627 1.51689681 5.83190912]
alpha-B1u nocc = 1  HOMO = -1.74096050715506  LUMO = -0.10964600112326
   mo_energy = [-1.74096051 -0.109646    0.05331516  1.34220942 27.32833921]
alpha-B2u nocc = 1  HOMO = -1.60815229333555  LUMO = -0.105574999899506
   mo_energy = [-1.60815229 -0.105575    0.06504079  1.40923174 27.4181669 ]
alpha-B3u nocc = 1  HOMO = -1.60815229333555  LUMO = -0.105574999899505
   mo_energy = [-1.60815229 -0.105575    0.06504079  1.40923174 27.4181669 ]
beta-Ag nocc = 2  HOMO = -2.51828737744675  LUMO = -0.171053011446297
   mo_energy = [-33.60014763  -2.51828738  -0.17105301   0.07866411   0.24227973
   0.24707145   1.5607026    1.57671202   2.26312054   5.93651704
   5.97213235  29.34432844]
beta-B1g nocc = 0
   mo_energy = [0.24707145 1.5607026  5.93651704]
beta-B2g nocc = 0
   mo_energy = [0.24320648 1.57233401 5.96239797]
beta-B3g nocc = 0
   mo_energy = [0.24320648 1.57233401 5.96239797]
beta-B1u nocc = 0
   mo_energy = [-0.6284254  -0.10115307  0.08733073  1.53768189 27.48843738]
beta-B2u nocc = 1  HOMO = -1.54704312709613  LUMO = -0.105037072672232
   mo_energy = [-1.54704313 -0.10503707  0.06745138  1.43032406 27.44273885]
beta-B3u nocc = 1  HOMO = -1.54704312709613  LUMO = -0.105037072672232
   mo_energy = [-1.54704313 -0.10503707  0.06745138  1.43032406 27.44273885]
multiplicity <S^2> = 0.75235435  2S+1 = 2.002353
E1 = -174.96029651099803  Ecoul = 47.192907158611646
cycle= 20 E= -127.767389352386  delta_E= -9.95e-14  |g|= 4.53e-10  |ddm|= 4.01e-11
    CPU time for cycle= 20      0.03 sec, wall time      0.01 sec
diis-norm(errvec)=6.40022e-10
Linear dependence found in DIIS error vectors.
diis-c [-2.89052492e-16  1.25000000e-01  1.25000000e-01  1.25000000e-01
  1.25000000e-01  1.25000000e-01  1.25000000e-01  1.25000000e-01
  1.25000000e-01]
alpha HOMO (B3u) = -1.60815229342241  LUMO (Ag) = -0.174340738540818
alpha irrep_nelec = [2, 0, 0, 0, 1, 1, 1]
beta  irrep_nelec = [2, 0, 0, 0, 0, 1, 1]
alpha-Ag nocc = 2  HOMO = -2.74381549861543  LUMO = -0.174340738540818
   mo_energy = [-33.66088033  -2.7438155   -0.17434074   0.06961754   0.23479951
   0.24740027   1.50340443   1.55745924   2.20525958   5.80522316
   5.91599238  29.28945356]
alpha-B1g nocc = 0
   mo_energy = [0.24740027 1.55745924 5.91599238]
alpha-B2g nocc = 0
   mo_energy = [0.23766627 1.51689681 5.83190912]
alpha-B3g nocc = 0
   mo_energy = [0.23766627 1.51689681 5.83190912]
alpha-B1u nocc = 1  HOMO = -1.74096050721771  LUMO = -0.109646001123887
   mo_energy = [-1.74096051 -0.109646    0.05331516  1.34220942 27.32833921]
alpha-B2u nocc = 1  HOMO = -1.60815229342241  LUMO = -0.105574999900622
   mo_energy = [-1.60815229 -0.105575    0.06504079  1.40923174 27.4181669 ]
alpha-B3u nocc = 1  HOMO = -1.60815229342241  LUMO = -0.105574999900622
   mo_energy = [-1.60815229 -0.105575    0.06504079  1.40923174 27.4181669 ]
beta-Ag nocc = 2  HOMO = -2.5182873775365  LUMO = -0.171053011448325
   mo_energy = [-33.60014763  -2.51828738  -0.17105301   0.07866411   0.24227973
   0.24707145   1.5607026    1.57671202   2.26312054   5.93651704
   5.97213235  29.34432844]
beta-B1g nocc = 0
   mo_energy = [0.24707145 1.5607026  5.93651704]
beta-B2g nocc = 0
   mo_energy = [0.24320648 1.57233401 5.96239797]
beta-B3g nocc = 0
   mo_energy = [0.24320648 1.57233401 5.96239797]
beta-B1u nocc = 0
   mo_energy = [-0.6284254  -0.10115307  0.08733073  1.53768189 27.48843738]
beta-B2u nocc = 1  HOMO = -1.54704312720933  LUMO = -0.105037072673547
   mo_energy = [-1.54704313 -0.10503707  0.06745138  1.43032406 27.44273885]
beta-B3u nocc = 1  HOMO = -1.54704312720932  LUMO = -0.105037072673547
   mo_energy = [-1.54704313 -0.10503707  0.06745138  1.43032406 27.44273885]
multiplicity <S^2> = 0.75235435  2S+1 = 2.002353
E1 = -174.9602965113151  Ecoul = 47.192907158928755
cycle= 21 E= -127.767389352386  delta_E= 4.26e-14  |g|= 3.29e-10  |ddm|= 6.43e-11
    CPU time for cycle= 21      0.03 sec, wall time      0.01 sec
diis-norm(errvec)=4.65551e-10
Linear dependence found in DIIS error vectors.
diis-c [-2.89052492e-16  1.25000000e-01  1.25000000e-01  1.25000000e-01
  1.25000000e-01  1.25000000e-01  1.25000000e-01  1.25000000e-01
  1.25000000e-01]
alpha HOMO (B2u) = -1.60815229348585  LUMO (Ag) = -0.174340738544153
alpha irrep_nelec = [2, 0, 0, 0, 1, 1, 1]
beta  irrep_nelec = [2, 0, 0, 0, 0, 1, 1]
alpha-Ag nocc = 2  HOMO = -2.74381549868081  LUMO = -0.174340738544153
   mo_energy = [-33.66088033  -2.7438155   -0.17434074   0.06961754   0.23479951
   0.24740027   1.50340443   1.55745924   2.20525958   5.80522316
   5.91599238  29.28945356]
alpha-B1g nocc = 0
   mo_energy = [0.24740027 1.55745924 5.91599238]
alpha-B2g nocc = 0
   mo_energy = [0.23766627 1.51689681 5.83190912]
alpha-B3g nocc = 0
   mo_energy = [0.23766627 1.51689681 5.83190912]
alpha-B1u nocc = 1  HOMO = -1.74096050726444  LUMO = -0.109646001124356
   mo_energy = [-1.74096051 -0.109646    0.05331516  1.34220942 27.32833921]
alpha-B2u nocc = 1  HOMO = -1.60815229348585  LUMO = -0.105574999901427
   mo_energy = [-1.60815229 -0.105575    0.06504079  1.40923174 27.4181669 ]
alpha-B3u nocc = 1  HOMO = -1.60815229348585  LUMO = -0.105574999901427
   mo_energy = [-1.60815229 -0.105575    0.06504079  1.40923174 27.4181669 ]
beta-Ag nocc = 2  HOMO = -2.51828737759937  LUMO = -0.171053011449697
   mo_energy = [-33.60014763  -2.51828738  -0.17105301   0.07866411   0.24227973
   0.24707145   1.5607026    1.57671202   2.26312054   5.93651704
   5.97213235  29.34432844]
beta-B1g nocc = 0
   mo_energy = [0.24707145 1.5607026  5.93651704]
beta-B2g nocc = 0
   mo_energy = [0.24320648 1.57233401 5.96239797]
beta-B3g nocc = 0
   mo_energy = [0.24320648 1.57233401 5.96239797]
beta-B1u nocc = 0
   mo_energy = [-0.6284254  -0.10115307  0.08733073  1.53768189 27.48843738]
beta-B2u nocc = 1  HOMO = -1.54704312729061  LUMO = -0.105037072674482
   mo_energy = [-1.54704313 -0.10503707  0.06745138  1.43032406 27.44273885]
beta-B3u nocc = 1  HOMO = -1.54704312729061  LUMO = -0.105037072674481
   mo_energy = [-1.54704313 -0.10503707  0.06745138  1.43032406 27.44273885]
multiplicity <S^2> = 0.75235435  2S+1 = 2.002353
E1 = -174.96029651154896  Ecoul = 47.19290715916257
cycle= 22 E= -127.767389352386  delta_E= -4.26e-14  |g|= 2.45e-10  |ddm|= 4.54e-11
    CPU time for cycle= 22      0.03 sec, wall time      0.01 sec
diis-norm(errvec)=3.45818e-10
Linear dependence found in DIIS error vectors.
diis-c [-2.89052492e-16  1.25000000e-01  1.25000000e-01  1.25000000e-01
  1.25000000e-01  1.25000000e-01  1.25000000e-01  1.25000000e-01
  1.25000000e-01]
alpha HOMO (B3u) = -1.60815229353986  LUMO (Ag) = -0.174340738546768
alpha irrep_nelec = [2, 0, 0, 0, 1, 1, 1]
beta  irrep_nelec = [2, 0, 0, 0, 0, 1, 1]
alpha-Ag nocc = 2  HOMO = -2.7438154987367  LUMO = -0.174340738546768
   mo_energy = [-33.66088033  -2.7438155   -0.17434074   0.06961754   0.23479951
   0.24740027   1.50340443   1.55745924   2.20525958   5.80522316
   5.91599238  29.28945356]
alpha-B1g nocc = 0
   mo_energy = [0.24740027 1.55745924 5.91599238]
alpha-B2g nocc = 0
   mo_energy = [0.23766627 1.51689681 5.83190912]
alpha-B3g nocc = 0
   mo_energy = [0.23766627 1.51689681 5.83190912]
alpha-B1u nocc = 1  HOMO = -1.74096050730702  LUMO = -0.109646001124826
   mo_energy = [-1.74096051 -0.109646    0.05331516  1.34220942 27.32833921]
alpha-B2u nocc = 1  HOMO = -1.60815229353986  LUMO = -0.105574999902074
   mo_energy = [-1.60815229 -0.105575    0.06504079  1.40923174 27.4181669 ]
alpha-B3u nocc = 1  HOMO = -1.60815229353986  LUMO = -0.105574999902074
   mo_energy = [-1.60815229 -0.105575    0.06504079  1.40923174 27.4181669 ]
beta-Ag nocc = 2  HOMO = -2.51828737764643  LUMO = -0.171053011450782
   mo_energy = [-33.60014763  -2.51828738  -0.17105301   0.07866411   0.24227973
   0.24707145   1.5607026    1.57671202   2.26312054   5.93651704
   5.97213235  29.34432844]
beta-B1g nocc = 0
   mo_energy = [0.24707145 1.5607026  5.93651704]
beta-B2g nocc = 0
   mo_energy = [0.24320648 1.57233401 5.96239797]
beta-B3g nocc = 0
   mo_energy = [0.24320648 1.57233401 5.96239797]
beta-B1u nocc = 0
   mo_energy = [-0.6284254  -0.10115307  0.08733073  1.53768189 27.48843738]
beta-B2u nocc = 1  HOMO = -1.54704312735223  LUMO = -0.105037072675163
   mo_energy = [-1.54704313 -0.10503707  0.06745138  1.43032406 27.44273885]
beta-B3u nocc = 1  HOMO = -1.54704312735223  LUMO = -0.105037072675163
   mo_energy = [-1.54704313 -0.10503707  0.06745138  1.43032406 27.44273885]
multiplicity <S^2> = 0.75235435  2S+1 = 2.002353
E1 = -174.96029651174047  Ecoul = 47.19290715935413
cycle= 23 E= -127.767389352386  delta_E= 4.26e-14  |g|= 1.9e-10  |ddm|= 2.95e-11
    CPU time for cycle= 23      0.03 sec, wall time      0.01 sec
diis-norm(errvec)=2.68571e-10
Linear dependence found in DIIS error vectors.
diis-c [-2.89052492e-16  1.25000000e-01  1.25000000e-01  1.25000000e-01
  1.25000000e-01  1.25000000e-01  1.25000000e-01  1.25000000e-01
  1.25000000e-01]
alpha HOMO (B3u) = -1.60815229358112  LUMO (Ag) = -0.174340738548926
alpha irrep_nelec = [2, 0, 0, 0, 1, 1, 1]
beta  irrep_nelec = [2, 0, 0, 0, 0, 1, 1]
alpha-Ag nocc = 2  HOMO = -2.74381549878058  LUMO = -0.174340738548926
   mo_energy = [-33.66088033  -2.7438155   -0.17434074   0.06961754   0.23479951
   0.24740027   1.50340443   1.55745924   2.20525958   5.80522316
   5.91599238  29.28945356]
alpha-B1g nocc = 0
   mo_energy = [0.24740027 1.55745924 5.91599238]
alpha-B2g nocc = 0
   mo_energy = [0.23766627 1.51689681 5.83190912]
alpha-B3g nocc = 0
   mo_energy = [0.23766627 1.51689681 5.83190912]
alpha-B1u nocc = 1  HOMO = -1.74096050733976  LUMO = -0.109646001125147
   mo_energy = [-1.74096051 -0.109646    0.05331516  1.34220942 27.32833921]
alpha-B2u nocc = 1  HOMO = -1.60815229358112  LUMO = -0.105574999902581
   mo_energy = [-1.60815229 -0.105575    0.06504079  1.40923174 27.4181669 ]
alpha-B3u nocc = 1  HOMO = -1.60815229358112  LUMO = -0.105574999902581
   mo_energy = [-1.60815229 -0.105575    0.06504079  1.40923174 27.4181669 ]
beta-Ag nocc = 2  HOMO = -2.51828737768867  LUMO = -0.171053011451591
   mo_energy = [-33.60014764  -2.51828738  -0.17105301   0.07866411   0.24227973
   0.24707145   1.5607026    1.57671202   2.26312054   5.93651704
   5.97213235  29.34432844]
beta-B1g nocc = 0
   mo_energy = [0.24707145 1.5607026  5.93651704]
beta-B2g nocc = 0
   mo_energy = [0.24320648 1.57233401 5.96239797]
beta-B3g nocc = 0
   mo_energy = [0.24320648 1.57233401 5.96239797]
beta-B1u nocc = 0
   mo_energy = [-0.6284254  -0.10115307  0.08733073  1.53768189 27.48843738]
beta-B2u nocc = 1  HOMO = -1.54704312740827  LUMO = -0.105037072675789
   mo_energy = [-1.54704313 -0.10503707  0.06745138  1.43032406 27.44273885]
beta-B3u nocc = 1  HOMO = -1.54704312740827  LUMO = -0.105037072675789
   mo_energy = [-1.54704313 -0.10503707  0.06745138  1.43032406 27.44273885]
multiplicity <S^2> = 0.75235435  2S+1 = 2.002353
E1 = -174.96029651190332  Ecoul = 47.192907159516906
cycle= 24 E= -127.767389352386  delta_E= -7.11e-14  |g|= 1.51e-10  |ddm|= 3.25e-11
    CPU time for cycle= 24      0.03 sec, wall time      0.01 sec
diis-norm(errvec)=2.13095e-10
Linear dependence found in DIIS error vectors.
diis-c [-2.89052492e-16  1.25000000e-01  1.25000000e-01  1.25000000e-01
  1.25000000e-01  1.25000000e-01  1.25000000e-01  1.25000000e-01
  1.25000000e-01]
alpha HOMO (B2u) = -1.60815229360863  LUMO (Ag) = -0.174340738550773
alpha irrep_nelec = [2, 0, 0, 0, 1, 1, 1]
beta  irrep_nelec = [2, 0, 0, 0, 0, 1, 1]
alpha-Ag nocc = 2  HOMO = -2.74381549881243  LUMO = -0.174340738550773
   mo_energy = [-33.66088033  -2.7438155   -0.17434074   0.06961754   0.23479951
   0.24740027   1.50340443   1.55745924   2.20525958   5.80522316
   5.91599238  29.28945356]
alpha-B1g nocc = 0
   mo_energy = [0.24740027 1.55745924 5.91599238]
alpha-B2g nocc = 0
   mo_energy = [0.23766627 1.51689681 5.83190912]
alpha-B3g nocc = 0
   mo_energy = [0.23766627 1.51689681 5.83190912]
alpha-B1u nocc = 1  HOMO = -1.74096050736462  LUMO = -0.109646001125427
   mo_energy = [-1.74096051 -0.109646    0.05331516  1.34220942 27.32833921]
alpha-B2u nocc = 1  HOMO = -1.60815229360863  LUMO = -0.10557499990294
   mo_energy = [-1.60815229 -0.105575    0.06504079  1.40923174 27.4181669 ]
alpha-B3u nocc = 1  HOMO = -1.60815229360864  LUMO = -0.10557499990294
   mo_energy = [-1.60815229 -0.105575    0.06504079  1.40923174 27.4181669 ]
beta-Ag nocc = 2  HOMO = -2.51828737772196  LUMO = -0.171053011452144
   mo_energy = [-33.60014764  -2.51828738  -0.17105301   0.07866411   0.24227973
   0.24707145   1.5607026    1.57671202   2.26312054   5.93651704
   5.97213235  29.34432844]
beta-B1g nocc = 0
   mo_energy = [0.24707145 1.5607026  5.93651704]
beta-B2g nocc = 0
   mo_energy = [0.24320648 1.57233401 5.96239797]
beta-B3g nocc = 0
   mo_energy = [0.24320648 1.57233401 5.96239797]
beta-B1u nocc = 0
   mo_energy = [-0.6284254  -0.10115307  0.08733073  1.53768189 27.48843738]
beta-B2u nocc = 1  HOMO = -1.54704312745557  LUMO = -0.105037072676325
   mo_energy = [-1.54704313 -0.10503707  0.06745138  1.43032406 27.44273885]
beta-B3u nocc = 1  HOMO = -1.54704312745557  LUMO = -0.105037072676325
   mo_energy = [-1.54704313 -0.10503707  0.06745138  1.43032406 27.44273885]
multiplicity <S^2> = 0.75235435  2S+1 = 2.002353
E1 = -174.96029651202616  Ecoul = 47.19290715963979
cycle= 25 E= -127.767389352386  delta_E= 4.26e-14  |g|= 1.28e-10  |ddm|= 3.21e-11
    CPU time for cycle= 25      0.03 sec, wall time      0.01 sec
diis-norm(errvec)=1.81554e-10
Linear dependence found in DIIS error vectors.
diis-c [-2.89052492e-16  1.25000000e-01  1.25000000e-01  1.25000000e-01
  1.25000000e-01  1.25000000e-01  1.25000000e-01  1.25000000e-01
  1.25000000e-01]
alpha HOMO (B3u) = -1.60815229362446  LUMO (Ag) = -0.174340738552279
alpha irrep_nelec = [2, 0, 0, 0, 1, 1, 1]
beta  irrep_nelec = [2, 0, 0, 0, 0, 1, 1]
alpha-Ag nocc = 2  HOMO = -2.74381549882478  LUMO = -0.174340738552279
   mo_energy = [-33.66088033  -2.7438155   -0.17434074   0.06961754   0.23479951
   0.24740027   1.50340443   1.55745924   2.20525958   5.80522316
   5.91599238  29.28945356]
alpha-B1g nocc = 0
   mo_energy = [0.24740027 1.55745924 5.91599238]
alpha-B2g nocc = 0
   mo_energy = [0.23766627 1.51689681 5.83190912]
alpha-B3g nocc = 0
   mo_energy = [0.23766627 1.51689681 5.83190912]
alpha-B1u nocc = 1  HOMO = -1.74096050736091  LUMO = -0.109646001125151
   mo_energy = [-1.74096051 -0.109646    0.05331516  1.34220942 27.32833921]
alpha-B2u nocc = 1  HOMO = -1.60815229362447  LUMO = -0.105574999903365
   mo_energy = [-1.60815229 -0.105575    0.06504079  1.40923174 27.4181669 ]
alpha-B3u nocc = 1  HOMO = -1.60815229362446  LUMO = -0.105574999903364
   mo_energy = [-1.60815229 -0.105575    0.06504079  1.40923174 27.4181669 ]
beta-Ag nocc = 2  HOMO = -2.51828737773682  LUMO = -0.171053011452057
   mo_energy = [-33.60014764  -2.51828738  -0.17105301   0.07866411   0.24227973
   0.24707145   1.5607026    1.57671202   2.26312054   5.93651704
   5.97213235  29.34432844]
beta-B1g nocc = 0
   mo_energy = [0.24707145 1.5607026  5.93651704]
beta-B2g nocc = 0
   mo_energy = [0.24320648 1.57233401 5.96239797]
beta-B3g nocc = 0
   mo_energy = [0.24320648 1.57233401 5.96239797]
beta-B1u nocc = 0
   mo_energy = [-0.6284254  -0.10115307  0.08733073  1.53768189 27.48843738]
beta-B2u nocc = 1  HOMO = -1.54704312749102  LUMO = -0.105037072676871
   mo_energy = [-1.54704313 -0.10503707  0.06745138  1.43032406 27.44273885]
beta-B3u nocc = 1  HOMO = -1.54704312749103  LUMO = -0.10503707267687
   mo_energy = [-1.54704313 -0.10503707  0.06745138  1.43032406 27.44273885]
multiplicity <S^2> = 0.75235435  2S+1 = 2.002353
E1 = -174.96029651208164  Ecoul = 47.19290715969527
[...]
beta-B3u nocc = 1  HOMO = -1.54704312749419  LUMO = -0.105037072677274
   mo_energy = [-1.54704313 -0.10503707  0.06745138  1.43032406 27.44273885]
multiplicity <S^2> = 0.75235435  2S+1 = 2.002353
E1 = -174.96029651192413  Ecoul = 47.19290715953784
cycle= 83 E= -127.767389352386  delta_E= 1.42e-14  |g|= 3.46e-14  |ddm|= 1.04e-14
    CPU time for cycle= 83      0.03 sec, wall time      0.01 sec
diis-norm(errvec)=5.07011e-14
Linear dependence found in DIIS error vectors.
diis-c [-2.89052492e-16  1.25000000e-01  1.25000000e-01  1.25000000e-01
  1.25000000e-01  1.25000000e-01  1.25000000e-01  1.25000000e-01
  1.25000000e-01]
alpha HOMO (B2u) = -1.60815229356169  LUMO (Ag) = -0.174340738552521
alpha irrep_nelec = [2, 0, 0, 0, 1, 1, 1]
beta  irrep_nelec = [2, 0, 0, 0, 0, 1, 1]
alpha-Ag nocc = 2  HOMO = -2.74381549876616  LUMO = -0.174340738552521
   mo_energy = [-33.66088033  -2.7438155   -0.17434074   0.06961754   0.23479951
   0.24740027   1.50340443   1.55745924   2.20525958   5.80522316
   5.91599238  29.28945356]
alpha-B1g nocc = 0
   mo_energy = [0.24740027 1.55745924 5.91599238]
alpha-B2g nocc = 0
   mo_energy = [0.23766627 1.51689681 5.83190912]
alpha-B3g nocc = 0
   mo_energy = [0.23766627 1.51689681 5.83190912]
alpha-B1u nocc = 1  HOMO = -1.74096050727963  LUMO = -0.109646001123851
   mo_energy = [-1.74096051 -0.109646    0.05331516  1.34220942 27.32833921]
alpha-B2u nocc = 1  HOMO = -1.60815229356169  LUMO = -0.105574999903159
   mo_energy = [-1.60815229 -0.105575    0.06504079  1.40923174 27.4181669 ]
alpha-B3u nocc = 1  HOMO = -1.60815229356169  LUMO = -0.105574999903159
   mo_energy = [-1.60815229 -0.105575    0.06504079  1.40923174 27.4181669 ]
beta-Ag nocc = 2  HOMO = -2.51828737771036  LUMO = -0.171053011450165
   mo_energy = [-33.60014764  -2.51828738  -0.17105301   0.07866411   0.24227973
   0.24707145   1.5607026    1.57671202   2.26312054   5.93651704
   5.97213235  29.34432844]
beta-B1g nocc = 0
   mo_energy = [0.24707145 1.5607026  5.93651704]
beta-B2g nocc = 0
   mo_energy = [0.24320648 1.57233401 5.96239797]
beta-B3g nocc = 0
   mo_energy = [0.24320648 1.57233401 5.96239797]
beta-B1u nocc = 0
   mo_energy = [-0.6284254  -0.10115307  0.08733073  1.53768189 27.48843738]
beta-B2u nocc = 1  HOMO = -1.54704312749419  LUMO = -0.105037072677274
   mo_energy = [-1.54704313 -0.10503707  0.06745138  1.43032406 27.44273885]
beta-B3u nocc = 1  HOMO = -1.54704312749419  LUMO = -0.105037072677274
   mo_energy = [-1.54704313 -0.10503707  0.06745138  1.43032406 27.44273885]
multiplicity <S^2> = 0.75235435  2S+1 = 2.002353
E1 = -174.96029651192418  Ecoul = 47.19290715953787
cycle= 84 E= -127.767389352386  delta_E= -2.84e-14  |g|= 5.14e-14  |ddm|= 8.44e-15
    CPU time for cycle= 84      0.03 sec, wall time      0.01 sec
diis-norm(errvec)=5.67166e-14
Linear dependence found in DIIS error vectors.
diis-c [-2.89052492e-16  1.25000000e-01  1.25000000e-01  1.25000000e-01
  1.25000000e-01  1.25000000e-01  1.25000000e-01  1.25000000e-01
  1.25000000e-01]
alpha HOMO (B3u) = -1.60815229356169  LUMO (Ag) = -0.174340738552522
alpha irrep_nelec = [2, 0, 0, 0, 1, 1, 1]
beta  irrep_nelec = [2, 0, 0, 0, 0, 1, 1]
alpha-Ag nocc = 2  HOMO = -2.74381549876615  LUMO = -0.174340738552522
   mo_energy = [-33.66088033  -2.7438155   -0.17434074   0.06961754   0.23479951
   0.24740027   1.50340443   1.55745924   2.20525958   5.80522316
   5.91599238  29.28945356]
alpha-B1g nocc = 0
   mo_energy = [0.24740027 1.55745924 5.91599238]
alpha-B2g nocc = 0
   mo_energy = [0.23766627 1.51689681 5.83190912]
alpha-B3g nocc = 0
   mo_energy = [0.23766627 1.51689681 5.83190912]
alpha-B1u nocc = 1  HOMO = -1.74096050727963  LUMO = -0.109646001123851
   mo_energy = [-1.74096051 -0.109646    0.05331516  1.34220942 27.32833921]
alpha-B2u nocc = 1  HOMO = -1.60815229356169  LUMO = -0.105574999903159
   mo_energy = [-1.60815229 -0.105575    0.06504079  1.40923174 27.4181669 ]
alpha-B3u nocc = 1  HOMO = -1.60815229356169  LUMO = -0.105574999903159
   mo_energy = [-1.60815229 -0.105575    0.06504079  1.40923174 27.4181669 ]
beta-Ag nocc = 2  HOMO = -2.51828737771035  LUMO = -0.171053011450166
   mo_energy = [-33.60014764  -2.51828738  -0.17105301   0.07866411   0.24227973
   0.24707145   1.5607026    1.57671202   2.26312054   5.93651704
   5.97213235  29.34432844]
beta-B1g nocc = 0
   mo_energy = [0.24707145 1.5607026  5.93651704]
beta-B2g nocc = 0
   mo_energy = [0.24320648 1.57233401 5.96239797]
beta-B3g nocc = 0
   mo_energy = [0.24320648 1.57233401 5.96239797]
beta-B1u nocc = 0
   mo_energy = [-0.6284254  -0.10115307  0.08733073  1.53768189 27.48843738]
beta-B2u nocc = 1  HOMO = -1.54704312749419  LUMO = -0.105037072677274
   mo_energy = [-1.54704313 -0.10503707  0.06745138  1.43032406 27.44273885]
beta-B3u nocc = 1  HOMO = -1.54704312749419  LUMO = -0.105037072677274
   mo_energy = [-1.54704313 -0.10503707  0.06745138  1.43032406 27.44273885]
multiplicity <S^2> = 0.75235435  2S+1 = 2.002353
E1 = -174.96029651192416  Ecoul = 47.19290715953787
cycle= 85 E= -127.767389352386  delta_E= 2.84e-14  |g|= 3.71e-14  |ddm|= 1.22e-14
    CPU time for cycle= 85      0.03 sec, wall time      0.01 sec
diis-norm(errvec)=5.68703e-14
Linear dependence found in DIIS error vectors.
diis-c [-2.89052492e-16  1.25000000e-01  1.25000000e-01  1.25000000e-01
  1.25000000e-01  1.25000000e-01  1.25000000e-01  1.25000000e-01
  1.25000000e-01]
alpha HOMO (B3u) = -1.60815229356169  LUMO (Ag) = -0.174340738552521
alpha irrep_nelec = [2, 0, 0, 0, 1, 1, 1]
beta  irrep_nelec = [2, 0, 0, 0, 0, 1, 1]
alpha-Ag nocc = 2  HOMO = -2.74381549876615  LUMO = -0.174340738552521
   mo_energy = [-33.66088033  -2.7438155   -0.17434074   0.06961754   0.23479951
   0.24740027   1.50340443   1.55745924   2.20525958   5.80522316
   5.91599238  29.28945356]
alpha-B1g nocc = 0
   mo_energy = [0.24740027 1.55745924 5.91599238]
alpha-B2g nocc = 0
   mo_energy = [0.23766627 1.51689681 5.83190912]
alpha-B3g nocc = 0
   mo_energy = [0.23766627 1.51689681 5.83190912]
alpha-B1u nocc = 1  HOMO = -1.74096050727963  LUMO = -0.109646001123851
   mo_energy = [-1.74096051 -0.109646    0.05331516  1.34220942 27.32833921]
alpha-B2u nocc = 1  HOMO = -1.60815229356169  LUMO = -0.105574999903159
   mo_energy = [-1.60815229 -0.105575    0.06504079  1.40923174 27.4181669 ]
alpha-B3u nocc = 1  HOMO = -1.60815229356169  LUMO = -0.105574999903159
   mo_energy = [-1.60815229 -0.105575    0.06504079  1.40923174 27.4181669 ]
beta-Ag nocc = 2  HOMO = -2.51828737771036  LUMO = -0.171053011450165
   mo_energy = [-33.60014764  -2.51828738  -0.17105301   0.07866411   0.24227973
   0.24707145   1.5607026    1.57671202   2.26312054   5.93651704
   5.97213235  29.34432844]
beta-B1g nocc = 0
   mo_energy = [0.24707145 1.5607026  5.93651704]
beta-B2g nocc = 0
   mo_energy = [0.24320648 1.57233401 5.96239797]
beta-B3g nocc = 0
   mo_energy = [0.24320648 1.57233401 5.96239797]
beta-B1u nocc = 0
   mo_energy = [-0.6284254  -0.10115307  0.08733073  1.53768189 27.48843738]
beta-B2u nocc = 1  HOMO = -1.54704312749419  LUMO = -0.105037072677274
   mo_energy = [-1.54704313 -0.10503707  0.06745138  1.43032406 27.44273885]
beta-B3u nocc = 1  HOMO = -1.54704312749419  LUMO = -0.105037072677274
   mo_energy = [-1.54704313 -0.10503707  0.06745138  1.43032406 27.44273885]
multiplicity <S^2> = 0.75235435  2S+1 = 2.002353
E1 = -174.9602965119242  Ecoul = 47.19290715953791
cycle= 86 E= -127.767389352386  delta_E= -1.42e-14  |g|= 5.73e-14  |ddm|= 2.89e-15
    CPU time for cycle= 86      0.03 sec, wall time      0.01 sec
diis-norm(errvec)=6.02048e-14
Linear dependence found in DIIS error vectors.
diis-c [-2.89052492e-16  1.25000000e-01  1.25000000e-01  1.25000000e-01
  1.25000000e-01  1.25000000e-01  1.25000000e-01  1.25000000e-01
  1.25000000e-01]
alpha HOMO (B2u) = -1.60815229356169  LUMO (Ag) = -0.174340738552522
alpha irrep_nelec = [2, 0, 0, 0, 1, 1, 1]
beta  irrep_nelec = [2, 0, 0, 0, 0, 1, 1]
alpha-Ag nocc = 2  HOMO = -2.74381549876616  LUMO = -0.174340738552522
   mo_energy = [-33.66088033  -2.7438155   -0.17434074   0.06961754   0.23479951
   0.24740027   1.50340443   1.55745924   2.20525958   5.80522316
   5.91599238  29.28945356]
alpha-B1g nocc = 0
   mo_energy = [0.24740027 1.55745924 5.91599238]
alpha-B2g nocc = 0
   mo_energy = [0.23766627 1.51689681 5.83190912]
alpha-B3g nocc = 0
   mo_energy = [0.23766627 1.51689681 5.83190912]
alpha-B1u nocc = 1  HOMO = -1.74096050727963  LUMO = -0.109646001123851
   mo_energy = [-1.74096051 -0.109646    0.05331516  1.34220942 27.32833921]
alpha-B2u nocc = 1  HOMO = -1.60815229356169  LUMO = -0.105574999903159
   mo_energy = [-1.60815229 -0.105575    0.06504079  1.40923174 27.4181669 ]
alpha-B3u nocc = 1  HOMO = -1.60815229356169  LUMO = -0.105574999903159
   mo_energy = [-1.60815229 -0.105575    0.06504079  1.40923174 27.4181669 ]
beta-Ag nocc = 2  HOMO = -2.51828737771036  LUMO = -0.171053011450166
   mo_energy = [-33.60014764  -2.51828738  -0.17105301   0.07866411   0.24227973
   0.24707145   1.5607026    1.57671202   2.26312054   5.93651704
   5.97213235  29.34432844]
beta-B1g nocc = 0
   mo_energy = [0.24707145 1.5607026  5.93651704]
beta-B2g nocc = 0
   mo_energy = [0.24320648 1.57233401 5.96239797]
beta-B3g nocc = 0
   mo_energy = [0.24320648 1.57233401 5.96239797]
beta-B1u nocc = 0
   mo_energy = [-0.6284254  -0.10115307  0.08733073  1.53768189 27.48843738]
beta-B2u nocc = 1  HOMO = -1.54704312749419  LUMO = -0.105037072677274
   mo_energy = [-1.54704313 -0.10503707  0.06745138  1.43032406 27.44273885]
beta-B3u nocc = 1  HOMO = -1.54704312749419  LUMO = -0.105037072677274
   mo_energy = [-1.54704313 -0.10503707  0.06745138  1.43032406 27.44273885]
multiplicity <S^2> = 0.75235435  2S+1 = 2.002353
E1 = -174.9602965119242  Ecoul = 47.19290715953787
cycle= 87 E= -127.767389352386  delta_E= -4.26e-14  |g|= 7.35e-14  |ddm|= 2.89e-15
    CPU time for cycle= 87      0.03 sec, wall time      0.01 sec
diis-norm(errvec)=8.80779e-14
Linear dependence found in DIIS error vectors.
diis-c [-2.89052492e-16  1.25000000e-01  1.25000000e-01  1.25000000e-01
  1.25000000e-01  1.25000000e-01  1.25000000e-01  1.25000000e-01
  1.25000000e-01]
alpha HOMO (B2u) = -1.60815229356169  LUMO (Ag) = -0.174340738552521
alpha irrep_nelec = [2, 0, 0, 0, 1, 1, 1]
beta  irrep_nelec = [2, 0, 0, 0, 0, 1, 1]
alpha-Ag nocc = 2  HOMO = -2.74381549876615  LUMO = -0.174340738552521
   mo_energy = [-33.66088033  -2.7438155   -0.17434074   0.06961754   0.23479951
   0.24740027   1.50340443   1.55745924   2.20525958   5.80522316
   5.91599238  29.28945356]
alpha-B1g nocc = 0
   mo_energy = [0.24740027 1.55745924 5.91599238]
alpha-B2g nocc = 0
   mo_energy = [0.23766627 1.51689681 5.83190912]
alpha-B3g nocc = 0
   mo_energy = [0.23766627 1.51689681 5.83190912]
alpha-B1u nocc = 1  HOMO = -1.74096050727963  LUMO = -0.109646001123851
   mo_energy = [-1.74096051 -0.109646    0.05331516  1.34220942 27.32833921]
alpha-B2u nocc = 1  HOMO = -1.60815229356169  LUMO = -0.105574999903159
   mo_energy = [-1.60815229 -0.105575    0.06504079  1.40923174 27.4181669 ]
alpha-B3u nocc = 1  HOMO = -1.60815229356169  LUMO = -0.105574999903159
   mo_energy = [-1.60815229 -0.105575    0.06504079  1.40923174 27.4181669 ]
beta-Ag nocc = 2  HOMO = -2.51828737771036  LUMO = -0.171053011450166
   mo_energy = [-33.60014764  -2.51828738  -0.17105301   0.07866411   0.24227973
   0.24707145   1.5607026    1.57671202   2.26312054   5.93651704
   5.97213235  29.34432844]
beta-B1g nocc = 0
   mo_energy = [0.24707145 1.5607026  5.93651704]
beta-B2g nocc = 0
   mo_energy = [0.24320648 1.57233401 5.96239797]
beta-B3g nocc = 0
   mo_energy = [0.24320648 1.57233401 5.96239797]
beta-B1u nocc = 0
   mo_energy = [-0.6284254  -0.10115307  0.08733073  1.53768189 27.48843738]
beta-B2u nocc = 1  HOMO = -1.54704312749419  LUMO = -0.105037072677274
   mo_energy = [-1.54704313 -0.10503707  0.06745138  1.43032406 27.44273885]
beta-B3u nocc = 1  HOMO = -1.54704312749419  LUMO = -0.105037072677274
   mo_energy = [-1.54704313 -0.10503707  0.06745138  1.43032406 27.44273885]
multiplicity <S^2> = 0.75235435  2S+1 = 2.002353
E1 = -174.96029651192416  Ecoul = 47.19290715953785
cycle= 88 E= -127.767389352386  delta_E= 4.26e-14  |g|= 5.13e-14  |ddm|= 3.8e-15
    CPU time for cycle= 88      0.03 sec, wall time      0.01 sec
diis-norm(errvec)=9.05313e-14
Linear dependence found in DIIS error vectors.
diis-c [-2.89052492e-16  1.25000000e-01  1.25000000e-01  1.25000000e-01
  1.25000000e-01  1.25000000e-01  1.25000000e-01  1.25000000e-01
  1.25000000e-01]
alpha HOMO (B3u) = -1.60815229356169  LUMO (Ag) = -0.174340738552521
alpha irrep_nelec = [2, 0, 0, 0, 1, 1, 1]
beta  irrep_nelec = [2, 0, 0, 0, 0, 1, 1]
alpha-Ag nocc = 2  HOMO = -2.74381549876615  LUMO = -0.174340738552521
   mo_energy = [-33.66088033  -2.7438155   -0.17434074   0.06961754   0.23479951
   0.24740027   1.50340443   1.55745924   2.20525958   5.80522316
   5.91599238  29.28945356]
alpha-B1g nocc = 0
   mo_energy = [0.24740027 1.55745924 5.91599238]
alpha-B2g nocc = 0
   mo_energy = [0.23766627 1.51689681 5.83190912]
alpha-B3g nocc = 0
   mo_energy = [0.23766627 1.51689681 5.83190912]
alpha-B1u nocc = 1  HOMO = -1.74096050727963  LUMO = -0.109646001123851
   mo_energy = [-1.74096051 -0.109646    0.05331516  1.34220942 27.32833921]
alpha-B2u nocc = 1  HOMO = -1.60815229356169  LUMO = -0.105574999903159
   mo_energy = [-1.60815229 -0.105575    0.06504079  1.40923174 27.4181669 ]
alpha-B3u nocc = 1  HOMO = -1.60815229356169  LUMO = -0.105574999903159
   mo_energy = [-1.60815229 -0.105575    0.06504079  1.40923174 27.4181669 ]
beta-Ag nocc = 2  HOMO = -2.51828737771037  LUMO = -0.171053011450166
   mo_energy = [-33.60014764  -2.51828738  -0.17105301   0.07866411   0.24227973
   0.24707145   1.5607026    1.57671202   2.26312054   5.93651704
   5.97213235  29.34432844]
beta-B1g nocc = 0
   mo_energy = [0.24707145 1.5607026  5.93651704]
beta-B2g nocc = 0
   mo_energy = [0.24320648 1.57233401 5.96239797]
beta-B3g nocc = 0
   mo_energy = [0.24320648 1.57233401 5.96239797]
beta-B1u nocc = 0
   mo_energy = [-0.6284254  -0.10115307  0.08733073  1.53768189 27.48843738]
beta-B2u nocc = 1  HOMO = -1.54704312749419  LUMO = -0.105037072677274
   mo_energy = [-1.54704313 -0.10503707  0.06745138  1.43032406 27.44273885]
beta-B3u nocc = 1  HOMO = -1.54704312749419  LUMO = -0.105037072677274
   mo_energy = [-1.54704313 -0.10503707  0.06745138  1.43032406 27.44273885]
multiplicity <S^2> = 0.75235435  2S+1 = 2.002353
E1 = -174.96029651192416  Ecoul = 47.19290715953787
cycle= 89 E= -127.767389352386  delta_E= 1.42e-14  |g|= 2.76e-14  |ddm|= 4.66e-15
    CPU time for cycle= 89      0.03 sec, wall time      0.01 sec
diis-norm(errvec)=8.86895e-14
Linear dependence found in DIIS error vectors.
diis-c [-2.89052492e-16  1.25000000e-01  1.25000000e-01  1.25000000e-01
  1.25000000e-01  1.25000000e-01  1.25000000e-01  1.25000000e-01
  1.25000000e-01]
alpha HOMO (B2u) = -1.60815229356169  LUMO (Ag) = -0.174340738552522
alpha irrep_nelec = [2, 0, 0, 0, 1, 1, 1]
beta  irrep_nelec = [2, 0, 0, 0, 0, 1, 1]
alpha-Ag nocc = 2  HOMO = -2.74381549876615  LUMO = -0.174340738552522
   mo_energy = [-33.66088033  -2.7438155   -0.17434074   0.06961754   0.23479951
   0.24740027   1.50340443   1.55745924   2.20525958   5.80522316
   5.91599238  29.28945356]
alpha-B1g nocc = 0
   mo_energy = [0.24740027 1.55745924 5.91599238]
alpha-B2g nocc = 0
   mo_energy = [0.23766627 1.51689681 5.83190912]
alpha-B3g nocc = 0
   mo_energy = [0.23766627 1.51689681 5.83190912]
alpha-B1u nocc = 1  HOMO = -1.74096050727963  LUMO = -0.109646001123851
   mo_energy = [-1.74096051 -0.109646    0.05331516  1.34220942 27.32833921]
alpha-B2u nocc = 1  HOMO = -1.60815229356169  LUMO = -0.105574999903159
   mo_energy = [-1.60815229 -0.105575    0.06504079  1.40923174 27.4181669 ]
alpha-B3u nocc = 1  HOMO = -1.60815229356169  LUMO = -0.105574999903159
   mo_energy = [-1.60815229 -0.105575    0.06504079  1.40923174 27.4181669 ]
beta-Ag nocc = 2  HOMO = -2.51828737771036  LUMO = -0.171053011450166
   mo_energy = [-33.60014764  -2.51828738  -0.17105301   0.07866411   0.24227973
   0.24707145   1.5607026    1.57671202   2.26312054   5.93651704
   5.97213235  29.34432844]
beta-B1g nocc = 0
   mo_energy = [0.24707145 1.5607026  5.93651704]
beta-B2g nocc = 0
   mo_energy = [0.24320648 1.57233401 5.96239797]
beta-B3g nocc = 0
   mo_energy = [0.24320648 1.57233401 5.96239797]
beta-B1u nocc = 0
   mo_energy = [-0.6284254  -0.10115307  0.08733073  1.53768189 27.48843738]
beta-B2u nocc = 1  HOMO = -1.54704312749419  LUMO = -0.105037072677274
   mo_energy = [-1.54704313 -0.10503707  0.06745138  1.43032406 27.44273885]
beta-B3u nocc = 1  HOMO = -1.54704312749419  LUMO = -0.105037072677274
   mo_energy = [-1.54704313 -0.10503707  0.06745138  1.43032406 27.44273885]
multiplicity <S^2> = 0.75235435  2S+1 = 2.002353
E1 = -174.96029651192416  Ecoul = 47.19290715953787
cycle= 90 E= -127.767389352386  delta_E=    0  |g|= 5.5e-14  |ddm|= 4.22e-15
    CPU time for cycle= 90      0.03 sec, wall time      0.01 sec
alpha HOMO (B3u) = -1.60815229356169  LUMO (Ag) = -0.174340738552523
alpha irrep_nelec = [2, 0, 0, 0, 1, 1, 1]
beta  irrep_nelec = [2, 0, 0, 0, 0, 1, 1]
alpha-Ag nocc = 2  HOMO = -2.74381549876615  LUMO = -0.174340738552523
   mo_energy = [-33.66088033  -2.7438155   -0.17434074   0.06961754   0.23479951
   0.24740027   1.50340443   1.55745924   2.20525958   5.80522316
   5.91599238  29.28945356]
alpha-B1g nocc = 0
   mo_energy = [0.24740027 1.55745924 5.91599238]
alpha-B2g nocc = 0
   mo_energy = [0.23766627 1.51689681 5.83190912]
alpha-B3g nocc = 0
   mo_energy = [0.23766627 1.51689681 5.83190912]
alpha-B1u nocc = 1  HOMO = -1.74096050727963  LUMO = -0.109646001123852
   mo_energy = [-1.74096051 -0.109646    0.05331516  1.34220942 27.32833921]
alpha-B2u nocc = 1  HOMO = -1.6081522935617  LUMO = -0.10557499990316
   mo_energy = [-1.60815229 -0.105575    0.06504079  1.40923174 27.4181669 ]
alpha-B3u nocc = 1  HOMO = -1.60815229356169  LUMO = -0.10557499990316
   mo_energy = [-1.60815229 -0.105575    0.06504079  1.40923174 27.4181669 ]
beta-Ag nocc = 2  HOMO = -2.51828737771036  LUMO = -0.171053011450166
   mo_energy = [-33.60014764  -2.51828738  -0.17105301   0.07866411   0.24227973
   0.24707145   1.5607026    1.57671202   2.26312054   5.93651704
   5.97213235  29.34432844]
beta-B1g nocc = 0
   mo_energy = [0.24707145 1.5607026  5.93651704]
beta-B2g nocc = 0
   mo_energy = [0.24320648 1.57233401 5.96239797]
beta-B3g nocc = 0
   mo_energy = [0.24320648 1.57233401 5.96239797]
beta-B1u nocc = 0
   mo_energy = [-0.6284254  -0.10115307  0.08733073  1.53768189 27.48843738]
beta-B2u nocc = 1  HOMO = -1.54704312749419  LUMO = -0.105037072677275
   mo_energy = [-1.54704313 -0.10503707  0.06745138  1.43032406 27.44273885]
beta-B3u nocc = 1  HOMO = -1.54704312749419  LUMO = -0.105037072677274
   mo_energy = [-1.54704313 -0.10503707  0.06745138  1.43032406 27.44273885]
multiplicity <S^2> = 0.75235435  2S+1 = 2.002353
E1 = -174.96029651192418  Ecoul = 47.19290715953787
Extra cycle  E= -127.767389352386  delta_E= -2.84e-14  |g|= 3.12e-14  |ddm|= 4.22e-15
    CPU time for scf_cycle      2.69 sec, wall time      0.75 sec
    CPU time for SCF      2.69 sec, wall time      0.75 sec
converged SCF energy = -127.767389352386  <S^2> = 0.75235435  2S+1 = 2.002353
irreps of each MO ['Ag' 'Ag' 'B1u' 'B2u' 'B3u' 'Ag' 'B1u' 'B2u' 'B3u' 'B1u' 'B2u' 'B3u' 'Ag'
 'Ag' 'B2g' 'B3g' 'Ag' 'B1g' 'B1u' 'B2u' 'B3u' 'Ag' 'B2g' 'B3g' 'Ag' 'B1g'
 'Ag' 'Ag' 'B2g' 'B3g' 'Ag' 'B1g' 'B1u' 'B2u' 'B3u' 'Ag']
irreps of each MO ['Ag' 'Ag' 'B2u' 'B3u' 'B1u' 'Ag' 'B2u' 'B3u' 'B1u' 'B2u' 'B3u' 'Ag' 'B1u'
 'Ag' 'B2g' 'B3g' 'Ag' 'B1g' 'B2u' 'B3u' 'B1u' 'Ag' 'B1g' 'B2g' 'B3g' 'Ag'
 'Ag' 'Ag' 'B1g' 'B2g' 'B3g' 'Ag' 'B2u' 'B3u' 'B1u' 'Ag']
irreps of each MO ['Ag' 'Ag' 'B2u' 'B3u' 'B1u' 'Ag' 'B1u' 'B2u' 'B3u' 'B1u' 'B2u' 'B3u' 'Ag'
 'Ag' 'B2g' 'B3g' 'Ag' 'B1g' 'B1u' 'B2u' 'B3u' 'Ag' 'B3g' 'B2g' 'B1g' 'Ag'
 'Ag' 'Ag' 'B2g' 'B3g' 'Ag' 'B1g' 'B1u' 'B2u' 'B3u' 'Ag']
