**********************************************************************
                          MRCC program system
 **********************************************************************

                              Written by
     Mihaly Kallay, Peter R. Nagy, David Mester, Laszlo Gyevi-Nagy,
        Jozsef Csoka, P. Bernat Szabo, Zoltan Rolik, Gyula Samu,
     Jozsef Csontos, Bence Hegely, Adam Ganyecz, Istvan Ladjanszki,
       Lorant Szegedy, Bence Ladoczki, Klara Petrov, Mate Farkas,
                    Pal D. Mezei, and Reka A. Horvath

        Department of Physical Chemistry and Materials Science
            Budapest University of Technology and Economics
                  Budapest P.O.Box 91, H-1521 Hungary

                              www.mrcc.hu

                     Release date: August 28, 2023

 ************************ 2025-02-17 09:37:03 *************************
 Executing minp...

 Reading input from MINP...

 Input file:

basis=aCV5Z-EMSL
iface=cfour
uncontract=off
calc=CC(5)(6)
ccprog=mrcc
mem=1950GB
core=corr
itol=18
scftol=13
cctol=6
ccmaxit=999
scfmaxit=9999
scfiguess=ao
scftype=UHF
#rohftype=semicanonical
rest=2
charge=+1
mult=4
refdet=serialno
1,2
3-5

symm=5
occ=2,0,0,0,0,1,1,1/2,0,0,0,0,0,0,0
geom
O

#Li 1 R
#R=3.065

#unit=angstroms

tprint=0.01
verbosity=3
#nstate=4


 Checking keyword combinations...

 Keywords:

 active=none
 agrid=ld0006-ld0590
 agrid_pssp=ld0006-ld0194
 agrid_pssp_sm=ld0006-ld0074
 basis=acv5z-emsl
 basis_sm=none
 basopt=off
 bfbasis=none
 bfgsmem=10
 bfgstol=1.0d-3
 boysalg=jacobi
 bpcompo=0.985
 bpcompv=0.98
 bpdfo=0.985
 bpocc=0.985
 bppdo=0.985
 bppdv=0.98
 bpedo=0.985
 bpedv=0.98
 calc=cc(5)(6)
 ccmaxit=999
 ccprog=mrcc
 ccsdalg=disk
 ccsdmkl=seq
 ccsdrest=off
 ccsdthreads=2
 cctol=6
 charge=+1
 cialg=disk
 ciguess=off
 cmpgrp=auto
 comprest=off
 coord_sys=ric
 core=corr
 corembed=off
 csapprox=off
 cvs=off
 dboc=off
 delocsomofact=
 dendec=cholesky
 dens=0
 denscorr=0
 dfalg=lineq
 dfbasis_cab=none
 dfbasis_cor=none
 dfbasis_scf=none
 dfbasis_scf_sm=none
 dfintran=ovirt
 dft=off
 dhexc=adc(2)
 diag=david
 docc=
 domrad=10.d0
 drpaalg=fit
 dual=off
 dual_df=off
 ecp=auto
 edisp=off
 edisp_embed=off
 embed=off
 epairestfact=off
 epairscale=1.d0
 etemp=300
 epert=none
 eps=
 espcharge=off
 excrad=0.d0
 excrad_fin=0.000000000D+00
 fitting=coulomb
 fmm=off
 fmmord=8
 fnonorb=
 freq=off
 gamma=1.d0
 gauss=spher
 geom=zmat
 gopt=off
 ghost=none
 gtol=7
 grdens=off
 grid=auto
 grid_sm=auto
 gridbatch_cos=2000
 grtol=10
 guido_ct=off
 hamilton=dc
 iface=cfour
 intalg=auto
 ip_ea=off
 itol=18
 laptol=1.d-2
 lccoporder=trffirst
 lcorthr=normal
 lccrest=off
 ldfgrad_tol=8
 lmp2dens=on
 lnoepso=0.d0
 lnoepsv=1e-6
 localcc=off
 localcorrsymm=off
 locintrf=disk
 mact=
 maxact=off
 maxdim=200
 maxex=0
 maxmicroit=100
 mcscfiguess=hf
 mem=1950gb
 mmprog=
 molden=on
 mpitasks=1
 mulmet=0
 mult=4
 nab=off
 nacto=0
 nactv=0
 naf_amp=3.16d-3
 naf_cor=off
 naf_f12=off
 naf_scf=off
 nafalg=albe
 nafdens=off
 naftyp=
 nchol=auto
 ndeps=1e-3
 nstate=1
 nsing=0
 nto=off
 ntrip=0
 num_grad=off
 occ=2,0,0,0,0,1,1,1/2,0,0,0,0,0,0,0
 occri=off
 oniom=off
 oniom_eechg=off
 oniom_pcm=off
 oniom_qcorr=off
 optalg=
 optmaxit=50
 optetol=1e-6
 optex=0
 optgtol=1e-4
 optstol=1e-3
 orblocc=off
 orbloce=off
 orbloco=off
 orblocv=off
 orblocguess=cholesky
 osveps=1e-3
 ovirt=off
 ovltol=1e-7
 ovosnorb=80.0
 pao_subsys_tol=1e-3
 pcm=off
 popul=off
 pressure=100000
 pssp=off
 ptfreq=0.0
 ptthreads=2
 qmreg=
 qmmm=off
 qro=off
 qscf=off
 redcost_exc=off
 redcost_tddft=off
 refdet=serialno
 rest=2
 rgrid=log3
 rism=off
 rohfcore=semicanonical
 rohftype=semicanonical
 scfalg=auto
 scf_conv=auto
 scfdamp=0.0d0
 scfdamp_mode=off
 scfdamp_end=9999
 scfdamp_dampstep=0.d0
 scfdamp_dtol=0.0d0
 scfdamp_maxfact=0.0d0
 scfdamp_minfact=0.0d0
 scfdiis=on
 scfdiis_dtol=0.0d0
 scfdiis_end=9999
 scfdiis_start=2
 scfdiis_step=1
 scfdiis_watch=off
 scfdiis_wrange=10
 scfdiis_wlimit=5
 scfdiis_delmax=2
 scfdtol=14
 scfext=10
 scfguessdens=
 scfiguess=ao
 scfloc=off
 scflshift=0.20
 scflshift_end=8
 scflshift_dtol=0.0
 scflshift_gaptol=0.20
 scfmaxit=9999
 scftype=uhf
 scftol=13
 scspe=1.d0
 scsph=1.d0
 scsps=1.2d0
 scsps_t=1.2d0
 scspt=0.33333333333333
 scspt_t=0.33333333333333
 scspv=1.d0
 spairtol=1e-4
 sqmprog=
 subminp=top
 symm=5
 talg=occ
 temp=298.15
 test=off
 theodore=off
 tlmo=0.999
 tpao=0.94
 tprint=0.01
 uncontract=off
 unit=angs
 usedisk=2
 verbosity=3
 wpairtol=0.100000000E-05

 ************************ 2025-02-17 09:37:05 *************************
 Executing goldstone...

 Generation of CC equations in terms of H and T...
 Generation of antisymmetrized Goldstone diagrams...
 Number of diagrams in T^1 equations:    15
 Number of diagrams in T^2 equations:    38
 Number of diagrams in T^3 equations:    54
 Number of diagrams in T^4 equations:    81
 Number of diagrams in T^5 equations:   102
 Number of diagrams in T^6 equations:    14
 Translation of diagrams to factorized equations...
 Optimizing intermediate calculation...
 Number of floating-point operations per iteration step:   7.0171E+16
 Probable CPU time per iteration step (hours):       701708.13
 Required memory (Mbytes):      17786470.4
 Number of intermediates:                                 164
 Number of intermediates to be stored:                     68
 Length of intermediate file (Mbytes):       4015131.8

 ************************ 2025-02-17 09:37:06 *************************
 Executing xmrcc...

 **********************************************************************
 CC(5)(6) calculation


 Allocation of      1996800.0 Mbytes of memory...
 Number of spinorbitals:                   362
 Number of alpha electrons:                        5
 Number of beta electrons:                         2
 Spin multiplicity:                     2
 z-component of spin:  1.5
 Spatial symmetry:                      5
 Convergence criterion:  1.0E-06
 Construction of occupation graphs...
 Number of                     0 -fold excitations:                      1
 Number of                     1 -fold excitations:                    229
 Number of                     2 -fold excitations:                  64718
 Number of                     3 -fold excitations:                9822082
 Number of                     4 -fold excitations:              730465727
 Number of                     5 -fold excitations:            26591364343
 Total number of configurations:            27331717100
 Calculation of coupling coefficients...
 Length of intermediate file (Mbytes):       2007644.6

 ======================================================================

 Spin case  1   Alpha:  4   Beta:  2
 Number of excitations:           384622052888
 Spin case  2   Alpha:  5   Beta:  1
 Number of excitations:            59468131772
 Number of                     6 -fold excitations:           444090184660

 Memory requirements /Mbyte/:
               Minimal        Optimal
 Real*8:    6703481.1413   6703481.1413
 Integer:    830412.7681
 Total:     7533893.9094   7533893.9094


 ************************ 2025-02-17 15:38:22 *************************
 Executing goldstone...

 Generation of CC equations in terms of H and T...
 Generation of antisymmetrized Goldstone diagrams...
 Number of diagrams in T^1 equations:    15
 Number of diagrams in T^2 equations:    38
 Number of diagrams in T^3 equations:    54
 Number of diagrams in T^4 equations:    81
 Number of diagrams in T^5 equations:   102
 Number of diagrams in T^6 equations:    14
 Translation of diagrams to factorized equations...
 Optimizing intermediate calculation...
 Number of floating-point operations per iteration step:   7.0171E+16
 Probable CPU time per iteration step (hours):       701708.13
 Required memory (Mbytes):      17786470.4
 Number of intermediates:                                 164
 Number of intermediates to be stored:                     68
 Length of intermediate file (Mbytes):       4015131.8

 ************************ 2025-02-17 15:38:41 *************************
 Executing xmrcc...

 **********************************************************************
 CC(5)(6) calculation


 Allocation of      1996800.0 Mbytes of memory...
 Number of spinorbitals:                   362
 Number of alpha electrons:                        5
 Number of beta electrons:                         2
 Spin multiplicity:                     2
 z-component of spin:  1.5
 Spatial symmetry:                      5
 Convergence criterion:  1.0E-06
 Construction of occupation graphs...
 Number of                     0 -fold excitations:                      1
 Number of                     1 -fold excitations:                    229
 Number of                     2 -fold excitations:                  64718
 Number of                     3 -fold excitations:                9822082
 Number of                     4 -fold excitations:              730465727
 Number of                     5 -fold excitations:            26591364343
 Total number of configurations:            27331717100
 Calculation of coupling coefficients...
 Length of intermediate file (Mbytes):       2007644.6

 ======================================================================

 Spin case  1   Alpha:  4   Beta:  2
 Number of excitations:           384622052888
 Spin case  2   Alpha:  5   Beta:  1
 Number of excitations:            59468131772
 Number of                     6 -fold excitations:           444090184660

 Memory requirements /Mbyte/:
               Minimal        Optimal
 Real*8:    6703481.1413   6703481.1413
 Integer:    830412.7681
 Total:     7533893.9094   7533893.9094


 ************************ 2025-02-17 22:14:02 *************************
 Executing goldstone...

 Generation of MRCC equations in terms of H and T...
 Generation of antisymmetrized Goldstone diagrams...
 Number of diagrams in T^1 equations:    15
 Number of diagrams in T^2 equations:    38
 Number of diagrams in T^3 equations:    54
 Number of diagrams in T^4 equations:    81
 Number of diagrams in T^5 equations:   102
 Number of diagrams in T^6 equations:    14
 Translation of diagrams to factorized equations...
 Number of restricted diagrams in T^1 equations:     78
 Number of restricted diagrams in T^2 equations:    344
 Number of restricted diagrams in T^3 equations:    892
 Number of restricted diagrams in T^4 equations:   2035
 Number of restricted diagrams in T^5 equations:   3948
 Number of restricted diagrams in T^6 equations:    730
 Optimizing intermediate calculation...
 Number of floating-point operations per iteration step:   6.7035E+16
 Probable CPU time per iteration step (hours):       670352.16
 Required memory (Mbytes):       5605644.4
 Number of intermediates:                                1689
 Number of intermediates to be stored:                    688
 Length of intermediate file (Mbytes):      17087153.5

 ************************ 2025-02-17 22:14:25 *************************
 Executing xmrcc...

 **********************************************************************
 MRCC(                     6 ) calculation


 Allocation of      1996800.0 Mbytes of memory...
 Number of spinorbitals:                   362
 Number of alpha electrons:                        5
 Number of beta electrons:                         2
 Number of active particles:                   178
 Number of active holes:                         0
 Spin multiplicity:                     2
 z-component of spin:  1.5
 Spatial symmetry:                      5
 Convergence criterion:  1.0E-06
 Construction of occupation graphs...
 Number of                     0 -fold excitations:                      1
 Number of                     1 -fold excitations:                    229
 Number of                     2 -fold excitations:                  64718
 Number of                     3 -fold excitations:                9822082
 Number of                     4 -fold excitations:              730465727
 Number of                     5 -fold excitations:            26591364343
 Total number of configurations:            27331717100
 Calculation of coupling coefficients...
 Length of intermediate file (Mbytes):       8598533.9

 ======================================================================

 Spin case  1   Alpha:  4   Beta:  2
 Number of excitations:             5976093884
 Spin case  2   Alpha:  5   Beta:  1
 Number of excitations:              923697380
 Spin case  3   Alpha:  4   Beta:  2
 Number of excitations:            24180585680
 Spin case  4   Alpha:  4   Beta:  2
 Number of excitations:            12224039222
 Spin case  5   Alpha:  5   Beta:  1
 Number of excitations:             4726789016
 Spin case  6   Alpha:  5   Beta:  1
 Number of excitations:              934084208
 Spin case  7   Alpha:  4   Beta:  2
 Number of excitations:            35852393296
 Spin case  8   Alpha:  4   Beta:  2
 Number of excitations:            49459620586
 Spin case  9   Alpha:  4   Beta:  2
 Number of excitations:             6111941768
 Spin case 10   Alpha:  5   Beta:  1
 Number of excitations:             9452152112
 Spin case 11   Alpha:  5   Beta:  1
 Number of excitations:             4779918196
 Spin case 12   Alpha:  4   Beta:  2
 Number of excitations:            23087689824
 Spin case 13   Alpha:  4   Beta:  2
 Number of excitations:            73332380522
 Spin case 14   Alpha:  4   Beta:  2
 Number of excitations:            24730041076
 Spin case 15   Alpha:  5   Beta:  1
 Number of excitations:             9234826776
 Spin case 16   Alpha:  5   Beta:  1
 Number of excitations:             9558335044
 Spin case 17   Alpha:  4   Beta:  2
 Number of excitations:             5448072954
 Spin case 18   Alpha:  4   Beta:  2
 Number of excitations:            47224110520
 Spin case 19   Alpha:  4   Beta:  2
 Number of excitations:            36666887498
 Spin case 20   Alpha:  5   Beta:  1
 Number of excitations:             4408196304
 Spin case 21   Alpha:  5   Beta:  1
 Number of excitations:             9338567404
 Spin case 22   Alpha:  4   Beta:  2
 Number of excitations:            11143978320
 Spin case 23   Alpha:  4   Beta:  2
 Number of excitations:            23612300230
 Spin case 24   Alpha:  5   Beta:  1
 Number of excitations:              822286986
 Spin case 25   Alpha:  5   Beta:  1
 Number of excitations:             4457743770
 Spin case 26   Alpha:  4   Beta:  2
 Number of excitations:             5571917508
 Spin case 27   Alpha:  5   Beta:  1
 Number of excitations:              831534576
 Number of                     6 -fold excitations:           444090184660

 Memory requirements /Mbyte/:
               Minimal        Optimal
 Real*8:    1775438.6060   1775438.6060
 Integer:    835490.6551
 Total:     2610929.2611   2610929.2611


 ************************ 2025-02-18 07:28:48 *************************
 Executing goldstone...

 Generation of MRCC equations in terms of H and T...
 Generation of antisymmetrized Goldstone diagrams...
 Number of diagrams in T^1 equations:    15
 Number of diagrams in T^2 equations:    38
 Number of diagrams in T^3 equations:    54
 Number of diagrams in T^4 equations:    81
 Number of diagrams in T^5 equations:   102
 Number of diagrams in T^6 equations:    14
 Translation of diagrams to factorized equations...
 Number of restricted diagrams in T^1 equations:     78
 Number of restricted diagrams in T^2 equations:    344
 Number of restricted diagrams in T^3 equations:    892
 Number of restricted diagrams in T^4 equations:   2035
 Number of restricted diagrams in T^5 equations:   3948
 Number of restricted diagrams in T^6 equations:    730
 Optimizing intermediate calculation...
 Number of floating-point operations per iteration step:   6.7209E+16
 Probable CPU time per iteration step (hours):       672085.91
 Required memory (Mbytes):       5604564.7
 Number of intermediates:                                1690
 Number of intermediates to be stored:                    688
 Length of intermediate file (Mbytes):      17075503.9

 ************************ 2025-02-18 07:29:08 *************************
 Executing xmrcc...

 **********************************************************************
 MRCC(                     6 ) calculation


 Allocation of      1996800.0 Mbytes of memory...
 Number of spinorbitals:                   362
 Number of alpha electrons:                        5
 Number of beta electrons:                         2
 Number of active particles:                   176
 Number of active holes:                         0
 Spin multiplicity:                     2
 z-component of spin:  1.5
 Spatial symmetry:                      5
 Convergence criterion:  1.0E-06
 Construction of occupation graphs...
 Number of                     0 -fold excitations:                      1
 Number of                     1 -fold excitations:                    229
 Number of                     2 -fold excitations:                  64718
 Number of                     3 -fold excitations:                9822082
 Number of                     4 -fold excitations:              730465727
 Number of                     5 -fold excitations:            26591364343
 Total number of configurations:            27331717100
 Calculation of coupling coefficients...
 Length of intermediate file (Mbytes):       8591406.2

 ======================================================================

 Spin case  1   Alpha:  4   Beta:  2
 Number of excitations:             5579251183
 Spin case  2   Alpha:  5   Beta:  1
 Number of excitations:              862006512
 Spin case  3   Alpha:  4   Beta:  2
 Number of excitations:            23103072145
 Spin case  4   Alpha:  4   Beta:  2
 Number of excitations:            11671744056
 Spin case  5   Alpha:  5   Beta:  1
 Number of excitations:             4514948946
 Spin case  6   Alpha:  5   Beta:  1
 Number of excitations:              891402078
 Spin case  7   Alpha:  4   Beta:  2
 Number of excitations:            35055959661
 Spin case  8   Alpha:  4   Beta:  2
 Number of excitations:            48329891877
 Spin case  9   Alpha:  4   Beta:  2
 Number of excitations:             5968430680
 Spin case 10   Alpha:  5   Beta:  1
 Number of excitations:             9241001982
 Spin case 11   Alpha:  5   Beta:  1
 Number of excitations:             4668884524
 Spin case 12   Alpha:  4   Beta:  2
 Number of excitations:            23102805457
 Spin case 13   Alpha:  4   Beta:  2
 Number of excitations:            73333350729
 Spin case 14   Alpha:  4   Beta:  2
 Number of excitations:            24714317977
 Spin case 15   Alpha:  5   Beta:  1
 Number of excitations:             9240883062
 Spin case 16   Alpha:  5   Beta:  1
 Number of excitations:             9555998904
 Spin case 17   Alpha:  4   Beta:  2
 Number of excitations:             5579214031
 Spin case 18   Alpha:  4   Beta:  2
 Number of excitations:            48329242037
 Spin case 19   Alpha:  4   Beta:  2
 Number of excitations:            37500634485
 Spin case 20   Alpha:  5   Beta:  1
 Number of excitations:             4514869694
 Spin case 21   Alpha:  5   Beta:  1
 Number of excitations:             9555885444
 Spin case 22   Alpha:  4   Beta:  2
 Number of excitations:            11671652542
 Spin case 23   Alpha:  4   Beta:  2
 Number of excitations:            24714087193
 Spin case 24   Alpha:  5   Beta:  1
 Number of excitations:              862023390
 Spin case 25   Alpha:  5   Beta:  1
 Number of excitations:             4668809420
 Spin case 26   Alpha:  4   Beta:  2
 Number of excitations:             5968398835
 Spin case 27   Alpha:  5   Beta:  1
 Number of excitations:              891417816
 Number of                     6 -fold excitations:           444090184660

 Memory requirements /Mbyte/:
               Minimal        Optimal
 Real*8:    1776609.3879   1776609.3879
 Integer:    835490.6584
 Total:     2612100.0463   2612100.0463


 ************************ 2025-02-18 17:15:05 *************************
 Executing goldstone...

 Generation of MRCC equations in terms of H and T...
 Generation of antisymmetrized Goldstone diagrams...
 Number of diagrams in T^1 equations:    15
 Number of diagrams in T^2 equations:    38
 Number of diagrams in T^3 equations:    54
 Number of diagrams in T^4 equations:    81
 Number of diagrams in T^5 equations:   102
 Number of diagrams in T^6 equations:    14
 Translation of diagrams to factorized equations...
 Number of restricted diagrams in T^1 equations:     78
 Number of restricted diagrams in T^2 equations:    344
 Number of restricted diagrams in T^3 equations:    892
 Number of restricted diagrams in T^4 equations:   2035
 Number of restricted diagrams in T^5 equations:   3948
 Number of restricted diagrams in T^6 equations:    730
 Optimizing intermediate calculation...
 Number of floating-point operations per iteration step:   6.7560E+16
 Probable CPU time per iteration step (hours):       675598.00
 Required memory (Mbytes):       5602405.8
 Number of intermediates:                                1693
 Number of intermediates to be stored:                    689
 Length of intermediate file (Mbytes):      17074041.5

 ************************ 2025-02-18 17:15:27 *************************
 Executing xmrcc...

 **********************************************************************
 MRCC(                     6 ) calculation


 Allocation of      1996800.0 Mbytes of memory...
 Number of spinorbitals:                   362
 Number of alpha electrons:                        5
 Number of beta electrons:                         2
 Number of active particles:                   180
 Number of active holes:                         0
 Spin multiplicity:                     2
 z-component of spin:  1.5
 Spatial symmetry:                      5
 Convergence criterion:  1.0E-06
 Construction of occupation graphs...
 Number of                     0 -fold excitations:                      1
 Number of                     1 -fold excitations:                    229
 Number of                     2 -fold excitations:                  64718
 Number of                     3 -fold excitations:                9822082
 Number of                     4 -fold excitations:              730465727
 Number of                     5 -fold excitations:            26591364343
 Total number of configurations:            27331717100
 Calculation of coupling coefficients...
 Length of intermediate file (Mbytes):       8590725.6

 ======================================================================

 Spin case  1   Alpha:  4   Beta:  2
 Number of excitations:             6396235250
 Spin case  2   Alpha:  5   Beta:  1
 Number of excitations:              988990264
 Spin case  3   Alpha:  4   Beta:  2
 Number of excitations:            25289237656
 Spin case  4   Alpha:  4   Beta:  2
 Number of excitations:            12792696548
 Spin case  5   Alpha:  5   Beta:  1
 Number of excitations:             4944820772
 Spin case  6   Alpha:  5   Beta:  1
 Number of excitations:              978010928
 Spin case  7   Alpha:  4   Beta:  2
 Number of excitations:            36638457545
 Spin case  8   Alpha:  4   Beta:  2
 Number of excitations:            50578111576
 Spin case  9   Alpha:  4   Beta:  2
 Number of excitations:             6254117738
 Spin case 10   Alpha:  5   Beta:  1
 Number of excitations:             9660865888
 Spin case 11   Alpha:  5   Beta:  1
 Number of excitations:             4889895532
 Spin case 12   Alpha:  4   Beta:  2
 Number of excitations:            23053902438
 Spin case 13   Alpha:  4   Beta:  2
 Number of excitations:            73275028301
 Spin case 14   Alpha:  4   Beta:  2
 Number of excitations:            24727216048
 Spin case 15   Alpha:  5   Beta:  1
 Number of excitations:             9221300736
 Spin case 16   Alpha:  5   Beta:  1
 Number of excitations:             9553523936
 Spin case 17   Alpha:  4   Beta:  2
 Number of excitations:             5315650578
 Spin case 18   Alpha:  4   Beta:  2
 Number of excitations:            46106879088
 Spin case 19   Alpha:  4   Beta:  2
 Number of excitations:            35824058939
 Spin case 20   Alpha:  5   Beta:  1
 Number of excitations:             4300425684
 Spin case 21   Alpha:  5   Beta:  1
 Number of excitations:             9118823286
 Spin case 22   Alpha:  4   Beta:  2
 Number of excitations:            10631432250
 Spin case 23   Alpha:  4   Beta:  2
 Number of excitations:            22541494584
 Spin case 24   Alpha:  5   Beta:  1
 Number of excitations:              783760218
 Spin case 25   Alpha:  5   Beta:  1
 Number of excitations:             4252655844
 Spin case 26   Alpha:  4   Beta:  2
 Number of excitations:             5197534349
 Spin case 27   Alpha:  5   Beta:  1
 Number of excitations:              775058684
 Number of                     6 -fold excitations:           444090184660

 Memory requirements /Mbyte/:
               Minimal        Optimal
 Real*8:    1775395.2396   1775395.2396
 Integer:    835490.6683
 Total:     2610885.9079   2610885.9079


 ************************ 2025-02-19 02:33:40 *************************
 Executing goldstone...

 Generation of MRCC equations in terms of H and T...
 Generation of antisymmetrized Goldstone diagrams...
 Number of diagrams in T^1 equations:    15
 Number of diagrams in T^2 equations:    38
 Number of diagrams in T^3 equations:    54
 Number of diagrams in T^4 equations:    81
 Number of diagrams in T^5 equations:   102
 Number of diagrams in T^6 equations:    14
 Translation of diagrams to factorized equations...
 Number of restricted diagrams in T^1 equations:     78
 Number of restricted diagrams in T^2 equations:    344
 Number of restricted diagrams in T^3 equations:    892
 Number of restricted diagrams in T^4 equations:   2035
 Number of restricted diagrams in T^5 equations:   3948
 Number of restricted diagrams in T^6 equations:    730
 Optimizing intermediate calculation...
 Number of floating-point operations per iteration step:   6.7475E+16
 Probable CPU time per iteration step (hours):       674749.73
 Required memory (Mbytes):       5594854.0
 Number of intermediates:                                1691
 Number of intermediates to be stored:                    690
 Length of intermediate file (Mbytes):      17063815.4

 ************************ 2025-02-19 02:33:58 *************************
 Executing xmrcc...

 **********************************************************************
 MRCC(                     6 ) calculation


 Allocation of      1996800.0 Mbytes of memory...
 Number of spinorbitals:                   362
 Number of alpha electrons:                        5
 Number of beta electrons:                         2
 Number of active particles:                   182
 Number of active holes:                         0
 Spin multiplicity:                     2
 z-component of spin:  1.5
 Spatial symmetry:                      5
 Convergence criterion:  1.0E-06
 Construction of occupation graphs...
 Number of                     0 -fold excitations:                      1
 Number of                     1 -fold excitations:                    229
 Number of                     2 -fold excitations:                  64718
 Number of                     3 -fold excitations:                9822082
 Number of                     4 -fold excitations:              730465727
 Number of                     5 -fold excitations:            26591364343
 Total number of configurations:            27331717100
 Calculation of coupling coefficients...
 Length of intermediate file (Mbytes):       8585602.9

 ======================================================================

 Spin case  1   Alpha:  4   Beta:  2
 Number of excitations:             6840626228
 Spin case  2   Alpha:  5   Beta:  1
 Number of excitations:             1058077088
 Spin case  3   Alpha:  4   Beta:  2
 Number of excitations:            26428535375
 Spin case  4   Alpha:  4   Beta:  2
 Number of excitations:            13377558328
 Spin case  5   Alpha:  5   Beta:  1
 Number of excitations:             5168850112
 Spin case  6   Alpha:  5   Beta:  1
 Number of excitations:             1023217156
 Spin case  7   Alpha:  4   Beta:  2
 Number of excitations:            37413418074
 Spin case  8   Alpha:  4   Beta:  2
 Number of excitations:            51682301070
 Spin case  9   Alpha:  4   Beta:  2
 Number of excitations:             6394729700
 Spin case 10   Alpha:  5   Beta:  1
 Number of excitations:             9866571006
 Spin case 11   Alpha:  5   Beta:  1
 Number of excitations:             4998540164
 Spin case 12   Alpha:  4   Beta:  2
 Number of excitations:            23002295085
 Spin case 13   Alpha:  4   Beta:  2
 Number of excitations:            73161354399
 Spin case 14   Alpha:  4   Beta:  2
 Number of excitations:            24705289220
 Spin case 15   Alpha:  5   Beta:  1
 Number of excitations:             9200644656
 Spin case 16   Alpha:  5   Beta:  1
 Number of excitations:             9541291254
 Spin case 17   Alpha:  4   Beta:  2
 Number of excitations:             5182200822
 Spin case 18   Alpha:  4   Beta:  2
 Number of excitations:            44980533955
 Spin case 19   Alpha:  4   Beta:  2
 Number of excitations:            34972913985
 Spin case 20   Alpha:  5   Beta:  1
 Number of excitations:             4191859694
 Spin case 21   Alpha:  5   Beta:  1
 Number of excitations:             8897181762
 Spin case 22   Alpha:  4   Beta:  2
 Number of excitations:            10134152497
 Spin case 23   Alpha:  4   Beta:  2
 Number of excitations:            21501818625
 Spin case 24   Alpha:  5   Beta:  1
 Number of excitations:              746399276
 Spin case 25   Alpha:  5   Beta:  1
 Number of excitations:             4053682116
 Spin case 26   Alpha:  4   Beta:  2
 Number of excitations:             4844325525
 Spin case 27   Alpha:  5   Beta:  1
 Number of excitations:              721817488
 Number of                     6 -fold excitations:           444090184660

 Memory requirements /Mbyte/:
               Minimal        Optimal
 Real*8:    1776478.0950   1776478.0950
 Integer:    835490.6617
 Total:     2611968.7567   2611968.7567


 ************************ 2025-02-19 12:05:37 *************************
 Executing goldstone...

 Generation of MRCC equations in terms of H and T...
 Generation of antisymmetrized Goldstone diagrams...
 Number of diagrams in T^1 equations:    15
 Number of diagrams in T^2 equations:    38
 Number of diagrams in T^3 equations:    54
 Number of diagrams in T^4 equations:    81
 Number of diagrams in T^5 equations:   102
 Number of diagrams in T^6 equations:    14
 Translation of diagrams to factorized equations...
 Number of restricted diagrams in T^1 equations:    440
 Number of restricted diagrams in T^2 equations:   3313
 Number of restricted diagrams in T^3 equations:  14852
 Number of restricted diagrams in T^4 equations:  46887
 Number of restricted diagrams in T^5 equations: 106174
 Number of restricted diagrams in T^6 equations:  18077
 Optimizing intermediate calculation...
 Number of floating-point operations per iteration step:   6.2390E+16
 Probable CPU time per iteration step (hours):       623896.55
 Required memory (Mbytes):       3201374.8
 Number of intermediates:                               17629
 Number of intermediates to be stored:                   7691
 Length of intermediate file (Mbytes):      20407675.0

 ************************ 2025-02-19 12:06:21 *************************
 Executing xmrcc...

 **********************************************************************
 MRCC(                     6 ) calculation


 Allocation of      1996800.0 Mbytes of memory...
 Number of spinorbitals:                   362
 Number of alpha electrons:                        5
 Number of beta electrons:                         2
 Number of active particles:                   180
 Number of active holes:                         4
 Spin multiplicity:                     2
 z-component of spin:  1.5
 Spatial symmetry:                      5
 Convergence criterion:  1.0E-06
 Construction of occupation graphs...
 Number of                     0 -fold excitations:                      1
 Number of                     1 -fold excitations:                    229
 Number of                     2 -fold excitations:                  64718
 Number of                     3 -fold excitations:                9822082
 Number of                     4 -fold excitations:              730465727
 Number of                     5 -fold excitations:            26591364343
 Total number of configurations:            27331717100
 Calculation of coupling coefficients...
 Length of intermediate file (Mbytes):      10203953.2

 ======================================================================

 Spin case  1   Alpha:  4   Beta:  2
 Number of excitations:             3837790050
 Spin case  2   Alpha:  4   Beta:  2
 Number of excitations:             2558445200
 Spin case  3   Alpha:  5   Beta:  1
 Number of excitations:              988990264
 Spin case  4   Alpha:  4   Beta:  2
 Number of excitations:            15173428728
 Spin case  5   Alpha:  4   Beta:  2
 Number of excitations:             7675756116
 Spin case  6   Alpha:  4   Beta:  2
 Number of excitations:            10115808928
 Spin case  7   Alpha:  4   Beta:  2
 Number of excitations:             5116940432
 Spin case  8   Alpha:  5   Beta:  1
 Number of excitations:             4944820772
 Spin case  9   Alpha:  5   Beta:  1
 Number of excitations:              978010928
 Spin case 10   Alpha:  4   Beta:  2
 Number of excitations:            21982410879
 Spin case 11   Alpha:  4   Beta:  2
 Number of excitations:            30346610808
 Spin case 12   Alpha:  4   Beta:  2
 Number of excitations:             3752499274
 Spin case 13   Alpha:  4   Beta:  2
 Number of excitations:            14656046666
 Spin case 14   Alpha:  4   Beta:  2
 Number of excitations:            20231500768
 Spin case 15   Alpha:  4   Beta:  2
 Number of excitations:             2501618464
 Spin case 16   Alpha:  5   Beta:  1
 Number of excitations:             9660865888
 Spin case 17   Alpha:  5   Beta:  1
 Number of excitations:             4889895532
 Spin case 18   Alpha:  4   Beta:  2
 Number of excitations:            13832043714
 Spin case 19   Alpha:  4   Beta:  2
 Number of excitations:            43963614141
 Spin case 20   Alpha:  4   Beta:  2
 Number of excitations:            14836254704
 Spin case 21   Alpha:  4   Beta:  2
 Number of excitations:             9221858724
 Spin case 22   Alpha:  4   Beta:  2
 Number of excitations:            29311414160
 Spin case 23   Alpha:  4   Beta:  2
 Number of excitations:             9890961344
 Spin case 24   Alpha:  5   Beta:  1
 Number of excitations:             9221300736
 Spin case 25   Alpha:  5   Beta:  1
 Number of excitations:             9553523936
 Spin case 26   Alpha:  4   Beta:  2
 Number of excitations:             3189412188
 Spin case 27   Alpha:  4   Beta:  2
 Number of excitations:            27663468984
 Spin case 28   Alpha:  4   Beta:  2
 Number of excitations:            21493988167
 Spin case 29   Alpha:  4   Beta:  2
 Number of excitations:             2126238390
 Spin case 30   Alpha:  4   Beta:  2
 Number of excitations:            18443410104
 Spin case 31   Alpha:  4   Beta:  2
 Number of excitations:            14330070772
 Spin case 32   Alpha:  5   Beta:  1
 Number of excitations:             4300425684
 Spin case 33   Alpha:  5   Beta:  1
 Number of excitations:             9118823286
 Spin case 34   Alpha:  4   Beta:  2
 Number of excitations:             6378924942
 Spin case 35   Alpha:  4   Beta:  2
 Number of excitations:            13524699192
 Spin case 36   Alpha:  4   Beta:  2
 Number of excitations:             4252507308
 Spin case 37   Alpha:  4   Beta:  2
 Number of excitations:             9016795392
 Spin case 38   Alpha:  5   Beta:  1
 Number of excitations:              783760218
 Spin case 39   Alpha:  5   Beta:  1
 Number of excitations:             4252655844
 Spin case 40   Alpha:  4   Beta:  2
 Number of excitations:             3118534557
 Spin case 41   Alpha:  4   Beta:  2
 Number of excitations:             2078999792
 Spin case 42   Alpha:  5   Beta:  1
 Number of excitations:              775058684
 Number of                     6 -fold excitations:           444090184660

 Memory requirements /Mbyte/:
               Minimal        Optimal
 Real*8:    1733391.3723   1733391.3723
 Integer:    835616.2212
 Total:     2569007.5935   2569007.5935


 ************************ 2025-02-19 22:42:13 *************************
 Executing goldstone...

 Generation of MRCC equations in terms of H and T...
 Generation of antisymmetrized Goldstone diagrams...
 Number of diagrams in T^1 equations:    15
 Number of diagrams in T^2 equations:    38
 Number of diagrams in T^3 equations:    54
 Number of diagrams in T^4 equations:    81
 Number of diagrams in T^5 equations:   102
 Number of diagrams in T^6 equations:    14
 Translation of diagrams to factorized equations...
 Number of restricted diagrams in T^1 equations:    434
 Number of restricted diagrams in T^2 equations:   3184
 Number of restricted diagrams in T^3 equations:  11630
 Number of restricted diagrams in T^4 equations:  32379
 Number of restricted diagrams in T^5 equations:  74748
 Number of restricted diagrams in T^6 equations:  12683
 Optimizing intermediate calculation...
 Number of floating-point operations per iteration step:   6.1565E+16
 Probable CPU time per iteration step (hours):       615654.63
 Required memory (Mbytes):       4001718.4
 Number of intermediates:                               13615
 Number of intermediates to be stored:                   6263
 Length of intermediate file (Mbytes):      19519671.0

 ************************ 2025-02-19 22:42:40 *************************
 Executing xmrcc...

 **********************************************************************
 MRCC(                     6 ) calculation


 Allocation of      1996800.0 Mbytes of memory...
 Number of spinorbitals:                   362
 Number of alpha electrons:                        5
 Number of beta electrons:                         2
 Number of active particles:                   180
 Number of active holes:                         2
 Spin multiplicity:                     2
 z-component of spin:  1.5
 Spatial symmetry:                      5
 Convergence criterion:  1.0E-06
 Construction of occupation graphs...
 Number of                     0 -fold excitations:                      1
 Number of                     1 -fold excitations:                    229
 Number of                     2 -fold excitations:                  64718
 Number of                     3 -fold excitations:                9822082
 Number of                     4 -fold excitations:              730465727
 Number of                     5 -fold excitations:            26591364343
 Total number of configurations:            27331717100
 Calculation of coupling coefficients...
