 **********************************************************************
                          MRCC program system
 **********************************************************************
 
                              Written by
     Mihaly Kallay, Peter R. Nagy, David Mester, Laszlo Gyevi-Nagy,
        Jozsef Csoka, P. Bernat Szabo, Zoltan Rolik, Gyula Samu,
      Bence Hegely, Bence Ladoczki, Klara Petrov, Jozsef Csontos,
     Adam Ganyecz, Istvan Ladjanszki, Lorant Szegedy, Mate Farkas,
          Pal D. Mezei, Reka A. Horvath, and Balazs D. Lorincz
 
        Department of Physical Chemistry and Materials Science
            Budapest University of Technology and Economics
                  Budapest P.O.Box 91, H-1521 Hungary
 
                              www.mrcc.hu
 
                            Version: 25.1.0

 ************************ 2025-10-22 01:22:42 *************************
 Executing minp...

 Reading input from MINP...
 
 Input file:
 
basis=aVDZ-EMSL
iface=cfour
uncontract=off
calc=CCSD
ccprog=mrcc
#mem=4GB
core=frozen
itol=18
scftol=13
cctol=6
ccmaxit=999
scfmaxit=9999
scfiguess=ao
scftype=UHF
#rohftype=semicanonical
rest=2
charge=+0
mult=3
#refdet=serialno
symm=2
occ=2,0,0,0,0,1,1,1/2,0,0,0,0,0,0,1
geom
O

#Li 1 R
#R=3.065

#unit=angstroms

tprint=0.01
verbosity=3
#nstate=4
 
 
 Checking keyword combinations...
 
 Keywords:
 
 active=none
 agrid=ld0006-ld0590
 agrid_pssp=ld0006-ld0194
 agrid_pssp_sm=ld0006-ld0074
 basis=avdz-emsl
 basis_sm=none
 basopt=off
 bfbasis=none
 bfgsmem=10
 bfgstol=1.0d-3
 boysalg=jacobi
 bpcompo=0.985
 bpcompv=0.98
 bpdfo=0.985
 bpocc=0.985
 bppdo=0.985
 bppdv=0.98
 bpedo=0.985
 bpedv=0.98
 bp_subsyso=0.95
 bp_subsysv=0.95
 cabscorr=off
 cabsdual=off
 calc=ccsd
 ccmaxit=999
 ccprog=mrcc
 ccsdalg=disk
 ccsdmkl=seq
 ccsdrest=off
 ccsdthreads=2
 cctol=6
 charge=+0
 cialg=disk
 ciguess=off
 cmpgrp=auto
 comprest=off
 coord_sys=ric
 core=frozen
 corembed=off
 csapprox=off
 cvs=off
 dboc=off
 deltaf12=off
 delocsomofact=
 dendec=cholesky
 dens=0
 denscorr=0
 dfalg=lineq
 dfbasis_cab=none
 dfbasis_cor=none
 dfbasis_scf=none
 dfbasis_scf_sm=auto
 dfintran=ovirt
 dft=off
 dhexc=adc(2)
 diag=david
 docc=
 domrad=10.d0
 drpaalg=fit
 dual=off
 dual_df=off
 dyson=off
 ecp=auto
 edisp=off
 edisp_embed=off
 embed=off
 epairestfact=off
 epairscale=1.d0
 etemp=300
 epert=none
 eps=
 espcharge=off
 excrad=0.d0
 excrad_f12=0.d0
 excrad_fin=0.000000000D+00
 fastdbbsc=v2
 fitting=coulomb
 fmm=off
 fmmord=8
 fnonorb=
 freq=off
 gamma=1.d0
 gauss=spher
 geom=zmat
 gopt=off
 ghost=none
 gtol=7
 grdens=off
 grid=auto
 grid_sm=auto
 gridbatch_cos=2000
 grtol=10
 guido_ct=off
 hamilton=dc
 iface=cfour
 incore=off
 intalg=auto
 ip_ea=off
 itol=18
 laptol=1.d-2
 lccoporder=trffirst
 lcorthr=normal
 lccrest=off
 ldfgrad_tol=8
 lmp2dens=on
 lnoepso=0.d0
 lnoepsv=1e-6
 localcc=off
 localcorrsymm=off
 locintrf=disk
 mact=
 maxact=off
 maxdim=200
 maxex=0
 maxmicroit=100
 mcscfiguess=hf
 mem=256MB
 mmprog=
 molden=on
 mp2ongrid=off
 mpitasks=1
 mulmet=0
 mult=3
 nab=off
 nacto=0
 nactv=0
 naf_amp=3.16d-3
 naf_cor=off
 naf_f12=off
 naf_scf=off
 nafalg=albe
 nafdens=off
 naftyp=
 nchol=auto
 ndeps=1e-3
 nstate=1
 nsing=0
 nto=off
 ntrip=0
 num_grad=off
 occ=2,0,0,0,0,1,1,1/2,0,0,0,0,0,0,1
 occri=off
 oniom=off
 oniom_eechg=off
 oniom_pcm=off
 oniom_qcorr=off
 optalg=
 optmaxit=50
 optetol=1e-6
 optex=0
 optgtol=1e-4
 optstol=1e-3
 orblocc=off
 orbloce=off
 orbloco=off
 orblocv=off
 orblocguess=cholesky
 osveps=1e-3
 ovirt=off
 ovltol=1e-7
 ovosnorb=80.0
 pao_subsys_tol=1e-3
 pao_tol=1e-3
 pcm=off
 popul=off
 pressure=100000
 pssp=off
 ptfreq=0.0
 ptthreads=2
 qmreg=
 qmmm=off
 qro=off
 qscf=off
 redcost_exc=off
 redcost_tddft=off
 refdet=none
 rest=2
 rgrid=log3
 rism=off
 rohfcore=semicanonical
 rohftype=standard
 scfalg=auto
 scf_conv=auto
 scfdamp=0.0d0
 scfdamp_mode=off
 scfdamp_end=9999
 scfdamp_dampstep=0.d0
 scfdamp_dtol=0.0d0
 scfdamp_maxfact=0.0d0
 scfdamp_minfact=0.0d0
 scfdiis=on
 scfdiis_dtol=0.0d0
 scfdiis_end=9999
 scfdiis_start=2
 scfdiis_step=1
 scfdiis_watch=off
 scfdiis_wrange=10
 scfdiis_wlimit=5
 scfdiis_delmax=2
 scfdtol=14
 scfext=10
 scfguessdens=
 scfiguess=ao
 scfloc=off
 scflshift=0.20
 scflshift_end=8
 scflshift_dtol=0.0
 scflshift_gaptol=0.20
 scfmaxit=9999
 scftype=uhf
 scftol=13
 scspe=1.d0
 scsph=1.d0
 scsps=1.2d0
 scsps_t=1.2d0
 scspt=0.33333333333333
 scspt_t=0.33333333333333
 scspv=1.d0
 spairtol=1e-4
 sqmprog=
 subminp=top
 subsys_bopu=on
 symm=2
 talg=occ
 temp=298.15
 test=off
 theodore=off
 tlmo=0.999
 tpao=0.94
 tprint=0.01
 uncontract=off
 unit=angs
 usedisk=2
 verbosity=3
 wpairtol=0.100000000E-05
 ispstart=
 ispend=

 ************************ 2025-10-22 01:22:42 *************************
 Executing goldstone...

 Generation of CC equations in terms of H and T...
 Generation of antisymmetrized Goldstone diagrams...
 Number of diagrams in T^1 equations:    14
 Number of diagrams in T^2 equations:    31
 Translation of diagrams to factorized equations...
 Optimizing intermediate calculation...
 Number of floating-point operations per iteration step:   3.6424E+05
 Probable CPU time per iteration step (hours):            0.00
 Required memory (Mbytes):            17.7
 Number of intermediates:                                  43
 Number of intermediates to be stored:                     20
 Length of intermediate file (Mbytes):             0.4

 ************************ 2025-10-22 01:22:43 *************************
 Executing xmrcc...

 **********************************************************************
 CC(                     2 ) calculation 
 
 
 Allocation of          256.0 Mbytes of memory...
 Number of spinorbitals:                    44
 Number of alpha electrons:                        4
 Number of beta electrons:                         2
 Spin multiplicity:                     2
 z-component of spin:  1.0
 Spatial symmetry:                      2
 Convergence criterion:  1.0E-06
 Construction of occupation graphs...
 Number of                     0 -fold excitations:                      1
 Number of                     1 -fold excitations:                     20
 Number of                     2 -fold excitations:                    540
 Total number of configurations:                    561
 Calculation of coupling coefficients...
 Length of intermediate file (Mbytes):             0.5
 
 ======================================================================
 
 Memory requirements /Mbyte/: 
               Minimal        Optimal
 Real*8:          1.9776         3.6257
 Integer:         3.3919
 Total:           5.3695         7.0176
 

 ************************ 2025-10-22 01:22:43 *************************
 Executing goldstone...

 Generation of CC equations in terms of H and T...
 Generation of antisymmetrized Goldstone diagrams...
 Number of diagrams in T^1 equations:    14
 Number of diagrams in T^2 equations:    31
 Translation of diagrams to factorized equations...
 Optimizing intermediate calculation...
 Number of floating-point operations per iteration step:   3.6424E+05
 Probable CPU time per iteration step (hours):            0.00
 Required memory (Mbytes):            17.7
 Number of intermediates:                                  43
 Number of intermediates to be stored:                     20
 Length of intermediate file (Mbytes):             0.4

 ************************ 2025-10-22 01:22:43 *************************
 Executing xmrcc...

 **********************************************************************
 CC(                     2 ) calculation 
 
 
 Allocation of          256.0 Mbytes of memory...
 Number of spinorbitals:                    44
 Number of alpha electrons:                        4
 Number of beta electrons:                         2
 Spin multiplicity:                     2
 z-component of spin:  1.0
 Spatial symmetry:                      2
 Convergence criterion:  1.0E-06
 Construction of occupation graphs...
 Number of                     0 -fold excitations:                      1
 Number of                     1 -fold excitations:                     20
 Number of                     2 -fold excitations:                    540
 Total number of configurations:                    561
 Calculation of coupling coefficients...
 Length of intermediate file (Mbytes):             0.5
 
 ======================================================================
 
 Memory requirements /Mbyte/: 
               Minimal        Optimal
 Real*8:          1.9776         3.6257
 Integer:         3.3919
 Total:           5.3695         7.0176
 

 ************************ 2025-10-22 01:22:43 *************************
 Executing mrcc...

 **********************************************************************
 CCSD calculation                                                       
 
 
 OpenMP parallel version is running.
 Number of CPU cores:  64
 Allocation of            3.6 Mbytes of memory...
 Number of spinorbitals:  44
 Number of alpha electrons:  4
 Number of beta  electrons:  2
 Spin multiplicity: 3
 z-component of spin:  1.0
 Spatial symmetry: 2
 Convergence criterion:  1.0E-06
 Construction of occupation graphs...
 Number of 0-fold excitations: 1
 Number of 1-fold excitations: 20
 Number of 2-fold excitations: 540
 Total number of determinants: 561
 Calculation of coupling coefficients...
 Initial cluster amplitudes are generated.
 Length of intermediate file (Mbytes):       0.5
 Reading integral list from unit 55...
 Sorting integrals...
 Sorting integrals...
 Sorting integrals...
 Sorting integrals...
 Energy of reference determinant [au]:     -74.658416511807
 Calculation of MP denominators...
 
 Starting CC iteration...
 ======================================================================
 Norm of residual vector:     0.77408358
 CPU time [min]:     0.428                   Wall time [min]:     0.011
 
 Iteration  1  CC energy:   -74.86743250  Energy decrease:   0.20901599
 ======================================================================
 Norm of residual vector:     0.23515680
 CPU time [min]:     0.614                   Wall time [min]:     0.015
 
 Iteration  2  CC energy:   -74.90597995  Energy decrease:   0.03854745
 ======================================================================
 Norm of residual vector:     0.07529811
 CPU time [min]:     0.776                   Wall time [min]:     0.018
 
 Iteration  3  CC energy:   -74.92404724  Energy decrease:   0.01806729
 ======================================================================
 Norm of residual vector:     0.02066493
 CPU time [min]:     0.845                   Wall time [min]:     0.019
 
 Iteration  4  CC energy:   -74.92094712  Energy decrease:   0.00310012
 ======================================================================
 Norm of residual vector:     0.00868143
 CPU time [min]:     0.924                   Wall time [min]:     0.021
 
 Iteration  5  CC energy:   -74.92352915  Energy decrease:   0.00258203
 ======================================================================
 Norm of residual vector:     0.00436202
 CPU time [min]:     0.984                   Wall time [min]:     0.022
 
 Iteration  6  CC energy:   -74.92288389  Energy decrease:   0.00064526
 ======================================================================
 Norm of residual vector:     0.00159572
 CPU time [min]:     1.088                   Wall time [min]:     0.023
 
 Iteration  7  CC energy:   -74.92287860  Energy decrease:   0.00000529
 ======================================================================
 Norm of residual vector:     0.00052129
 CPU time [min]:     1.187                   Wall time [min]:     0.025
 
 Iteration  8  CC energy:   -74.92289737  Energy decrease:   0.00001878
 ======================================================================
 Norm of residual vector:     0.00015570
 CPU time [min]:     1.285                   Wall time [min]:     0.027
 
 Iteration  9  CC energy:   -74.92290954  Energy decrease:   0.00001217
 ======================================================================
 Norm of residual vector:     0.00003641
 CPU time [min]:     1.408                   Wall time [min]:     0.029
 
 Iteration 10  CC energy:   -74.92290274  Energy decrease:   0.00000680
 ======================================================================
 Norm of residual vector:     0.00001156
 CPU time [min]:     1.480                   Wall time [min]:     0.030
 
 Iteration 11  CC energy:   -74.92290527  Energy decrease:   0.00000253
 ======================================================================
 Norm of residual vector:     0.00000328
 CPU time [min]:     1.542                   Wall time [min]:     0.031
 
 Iteration 12  CC energy:   -74.92290495  Energy decrease:   0.00000033
 ======================================================================
 Norm of residual vector:     0.00000089
 CPU time [min]:     1.602                   Wall time [min]:     0.032
 
 Iteration 13  CC energy:   -74.92290491  Energy decrease:   0.00000004
 ======================================================================
 
 Iteration has converged in 13 steps.
 
 Final results:
 Total CCSD energy [au]:                      -74.922904909046
 Total MP2 energy [au]:                       -74.867432504279
 
 Dominant cluster amplitudes
 Printing threshold:  1.00E-02
 
    1.000000  Reference determinant                                     
   -0.034742  1b -> 9b                                                  
    0.014375  1b -> 13b                                                 
   -0.020459  1b -> 18b                                                 
   -0.576558  2b -> 6b                                                  
   -0.139464  2b -> 14b                                                 
    0.020703  1a -> 13a                                                 
    0.019758  1a -> 22a                                                 
    0.025971  2a -> 6a                                                  
   -0.010442  3a -> 15a                                                 
   -0.024557  4a -> 8a                                                  
   -0.027369  4a -> 16a                                                 
   -0.013756  1b 2b -> 3b 10b                                           
    0.011376  1b 2b -> 7b 10b                                           
   -0.017932  1b 2b -> 4b 12b                                           
   -0.010054  1b 2b -> 5b 14b                                           
    0.014468  1b 2b -> 14b 17b                                          
   -0.011063  1b 2b -> 4b 21b                                           
   -0.017327  1a 1b -> 17a 17b                                          
   -0.017201  2a 2b -> 9a 13b                                           
   -0.012725  2a 2b -> 17a 17b                                          
   -0.010401  2a 2b -> 9a 22b                                           
   -0.013844  2a 2b -> 18a 22b                                          
   -0.017237  2a 2b -> 12a 12b                                          
   -0.010206  2a 2b -> 12a 21b                                          
   -0.013810  2a 2b -> 21a 21b                                          
   -0.017251  2a 2b -> 10a 10b                                          
   -0.010476  2a 2b -> 10a 19b                                          
   -0.013868  2a 2b -> 19a 19b                                          
   -0.025409  2a 2b -> 6a 6b                                            
   -0.030803  2a 2b -> 14a 6b                                           
   -0.030423  2a 2b -> 6a 14b                                           
   -0.053668  2a 2b -> 14a 14b                                          
   -0.010862  1a 1b -> 15a 15b                                          
    0.011763  1a 1b -> 8a 4b                                            
    0.012151  1a 1b -> 16a 4b                                           
    0.010549  2a 2b -> 8a 4b                                            
   -0.012343  4a 2b -> 13a 12b                                          
   -0.012304  4a 2b -> 11a 10b                                          
   -0.012243  4a 2b -> 12a 13b                                          
    0.020671  4a 2b -> 6a 4b                                            
    0.012420  4a 2b -> 14a 4b                                           
   -0.017062  4a 2b -> 8a 6b                                            
   -0.023843  4a 2b -> 16a 6b                                           
   -0.020039  4a 2b -> 8a 14b                                           
   -0.039421  4a 2b -> 16a 14b                                          
   -0.012248  3a 2b -> 11a 12b                                          
    0.014310  3a 2b -> 6a 3b                                            
   -0.013621  3a 2b -> 6a 7b                                            
   -0.017123  3a 2b -> 7a 6b                                            
   -0.023475  3a 2b -> 15a 6b                                           
   -0.020372  3a 2b -> 7a 14b                                           
   -0.039087  3a 2b -> 15a 14b                                          
   -0.013453  1a 2b -> 5a 6b                                            
   -0.014871  1a 2b -> 17a 6b                                           
   -0.019260  1a 2b -> 5a 14b                                           
   -0.029320  1a 2b -> 17a 14b                                          
   -0.012066  2a 1b -> 17a 14b                                          
   -0.012020  1a 2b -> 12a 4b                                           
   -0.013162  1a 2b -> 21a 4b                                           
   -0.025987  2a 1b -> 12a 4b                                           
   -0.022300  2a 1b -> 21a 4b                                           
   -0.020064  2a 1b -> 10a 3b                                           
   -0.015889  2a 1b -> 19a 3b                                           
    0.016555  2a 1b -> 10a 7b                                           
    0.014889  2a 1b -> 19a 7b                                           
   -0.012649  1a 2b -> 14a 17b                                          
   -0.014553  2a 1b -> 14a 5b                                           
   -0.022539  2a 1b -> 14a 17b                                          
    0.020204  3a 1b -> 9a 3b                                            
    0.012292  3a 1b -> 13a 3b                                           
    0.015895  3a 1b -> 18a 3b                                           
   -0.010458  3a 1b -> 5a 7b                                            
   -0.016748  3a 1b -> 9a 7b                                            
   -0.010129  3a 1b -> 13a 7b                                           
   -0.014860  3a 1b -> 18a 7b                                           
   -0.012120  3a 1b -> 17a 15b                                          
   -0.027067  3a 1b -> 11a 4b                                           
   -0.023015  3a 1b -> 20a 4b                                           
   -0.014488  3a 1b -> 15a 5b                                           
   -0.022493  3a 1b -> 15a 17b                                          
    0.014923  4a 1b -> 5a 4b                                            
   -0.030957  4a 1b -> 13a 4b                                           
    0.010003  4a 1b -> 17a 4b                                           
   -0.026412  4a 1b -> 22a 4b                                           
   -0.010431  4a 1b -> 17a 16b                                          
   -0.020866  4a 1b -> 11a 3b                                           
   -0.016543  4a 1b -> 20a 3b                                           
    0.017256  4a 1b -> 11a 7b                                           
    0.015441  4a 1b -> 20a 7b                                           
   -0.014683  4a 1b -> 16a 5b                                           
   -0.022712  4a 1b -> 16a 17b                                          
   -0.011257  3a 4a -> 11a 13a                                          
    0.011064  3a 4a -> 8a 15a                                           
   -0.011428  3a 4a -> 7a 16a                                           
   -0.024270  3a 4a -> 15a 16a                                          
   -0.010927  3a 4a -> 20a 22a                                          
   -0.011888  2a 4a -> 12a 13a                                          
    0.010612  2a 4a -> 8a 14a                                           
   -0.012127  2a 4a -> 6a 16a                                           
   -0.023508  2a 4a -> 14a 16a                                          
   -0.010945  2a 4a -> 21a 22a                                          
   -0.014123  2a 3a -> 9a 10a                                           
    0.010801  2a 3a -> 7a 14a                                           
   -0.011942  2a 3a -> 6a 15a                                           
   -0.023273  2a 3a -> 14a 15a                                          
   -0.012688  2a 3a -> 18a 19a                                          
    0.012624  1a 2a -> 14a 17a                                          
    0.012904  1a 3a -> 15a 17a                                          
    0.013057  1a 4a -> 16a 17a                                          
 
 ************************ 2025-10-22 01:22:45 *************************
                      Normal termination of mrcc.
 **********************************************************************
