#INFO: **** input file is /lustre09/project/6004934/jaafar1/PySCF-MRCC/Nitrogen/AE/cation/dawCV2Z/UHF/input.py ****
import pyscf
from pyscf import cc, lib, tools, scf, symm, ao2mo
from pyscf.gto.basis import parse_gaussian
from pyscf.scf import atom_hf

name = 'out'
mol = pyscf.M(
    atom = '''
        N
    ''',
    unit = 'angstrom',
    basis = {
            'N' : parse_gaussian.load('N-d-aug-cc-pwCVDZ.gbs', 'N')
    },
    charge = +1,
    spin = 2,
    symmetry = True,
    verbose = 9,
    symmetry_subgroup = 'D2h',
    output = name +'.txt',
    max_memory = 8000,
)

original_AtomSphAverageRHF = atom_hf.AtomSphAverageRHF

class CustomAtomSphAverageRHF(original_AtomSphAverageRHF):
    def __init__(self, mol):
        super().__init__(mol)
        self.max_cycle = 9999
        self.direct_scf = False

atom_hf.AtomSphAverageRHF = CustomAtomSphAverageRHF

mf = mol.UHF().set(
    conv_tol=1e-15,
    max_cycle=9999,
    ddm_tol=1e-14,
    direct_scf=False,
    chkfile=name + '.chk',
    init_guess='atom',
    irrep_nelec={'Ag': 4, 'B3u': 1, 'B2u': 1}
)

mf.kernel()

atom_hf.AtomSphAverageRHF = original_AtomSphAverageRHF

#pyscf.tools.fcidump.from_chkfile_uhf('FCIdump',name+'.chk',tol=1e-18, float_format='% 0.20E',molpro_orbsym=False,orbsym=None)
pyscf.tools.fcidump.from_scf_uhf(mf,'fort.55',tol=1e-18, float_format='% 0.20E',molpro_orbsym=False)
#MRCCInterface.run_mrcc(mf, fort_file='fort.55', mrcc_input_file='MINP', tol=1e-18, float_format='% 0.20E', molpro_orbsym=False)
#INFO: ******************** input file end ********************


System: uname_result(system='Linux', node='rc32001', release='5.14.0-687.15.1.el9_8.x86_64', version='#1 SMP PREEMPT_DYNAMIC Thu Jun 11 08:51:45 EDT 2026', machine='x86_64')  Threads 4
Python 3.13.2 (main, Feb  5 2025, 15:06:39) [GCC 13.3.0]
numpy 2.2.2  scipy 1.15.1  h5py 3.13.0
Date: Mon Jun 22 06:06:10 2026
PySCF version 2.10.0
PySCF path  /home/jaafar1/links/projects/rrg-tzeng/jaafar1/VENV/MRCCInterface/lib/python3.13/site-packages/pyscf

[CONFIG] ARGPARSE = False
[CONFIG] DEBUG = False
[CONFIG] MAX_MEMORY = 4000
[CONFIG] TMPDIR = /tmp
[CONFIG] UNIT = angstrom
[CONFIG] VERBOSE = 3
[CONFIG] conf_file = None
[INPUT] verbose = 9
[INPUT] max_memory = 8000 
[INPUT] num. atoms = 1
[INPUT] num. electrons = 6
[INPUT] charge = 1
[INPUT] spin (= nelec alpha-beta = 2S) = 2
[INPUT] symmetry True subgroup D2h
[INPUT] Mole.unit = angstrom
[INPUT] Symbol           X                Y                Z      unit          X                Y                Z       unit  Magmom
[INPUT]  1 N      0.000000000000   0.000000000000   0.000000000000 AA    0.000000000000   0.000000000000   0.000000000000 Bohr   0.0
[INPUT] ---------------- BASIS SET ---------------- 
[INPUT] l, kappa, [nprim/nctr], expnt,             c_1 c_2 ...
[INPUT] N
[INPUT] 0    0    [9    /2   ]  9046              0.0007 -0.000153
                                1357              0.005389 -0.001208
                                309.3             0.027406 -0.005992
                                87.73             0.103207 -0.024544
                                28.56             0.278723 -0.067459
                                10.21             0.44854 -0.158078
                                3.838             0.278238 -0.121831
                                0.7466            0.01544 0.549003
                                0.2248            -0.002864 0.578815
[INPUT] 0    0    [1    /1   ]  4.32                 1
[INPUT] 0    0    [1    /1   ]  0.2248               1
[INPUT] 0    0    [1    /1   ]  0.06124              1
[INPUT] 0    0    [1    /1   ]  0.0167               1
[INPUT] 1    0    [1    /1   ]  10.239               1
[INPUT] 1    0    [4    /1   ]  13.55             0.039919
                                2.917             0.217169
                                0.7973            0.510319
                                0.2185            0.462214
[INPUT] 1    0    [1    /1   ]  0.2185               1
[INPUT] 1    0    [1    /1   ]  0.05611              1
[INPUT] 1    0    [1    /1   ]  0.0144               1
[INPUT] 2    0    [1    /1   ]  0.817                1
[INPUT] 2    0    [1    /1   ]  0.23                 1
[INPUT] 2    0    [1    /1   ]  0.0647               1

nuclear repulsion = 0
point group symmetry = SO3, use subgroup D2h
symmetry origin: [0. 0. 0.]
symmetry axis x: [1. 0. 0.]
symmetry axis y: [0. 1. 0.]
symmetry axis z: [0. 0. 1.]
num. orbitals of irrep Ag = 12
num. orbitals of irrep B1g = 3
num. orbitals of irrep B2g = 3
num. orbitals of irrep B3g = 3
num. orbitals of irrep B1u = 5
num. orbitals of irrep B2u = 5
num. orbitals of irrep B3u = 5
number of shells = 13
number of NR pGTOs = 52
number of NR cGTOs = 36
basis = {'N': [[0, [9046.0, 0.0007, -0.000153], [1357.0, 0.005389, -0.001208], [309.3, 0.027406, -0.005992], [87.73, 0.103207, -0.024544], [28.56, 0.278723, -0.067459], [10.21, 0.44854, -0.158078], [3.838, 0.278238, -0.121831], [0.7466, 0.01544, 0.549003], [0.2248, -0.002864, 0.578815]], [0, [4.32, 1.0]], [0, [0.2248, 1.0]], [0, [0.06124, 1.0]], [0, [0.0167, 1.0]], [1, [10.239, 1.0]], [1, [13.55, 0.039919], [2.917, 0.217169], [0.7973, 0.510319], [0.2185, 0.462214]], [1, [0.2185, 1.0]], [1, [0.05611, 1.0]], [1, [0.0144, 1.0]], [2, [0.817, 1.0]], [2, [0.23, 1.0]], [2, [0.0647, 1.0]]]}
ecp = {}
bas 0, expnt(s) = [9.046e+03 1.357e+03 3.093e+02 8.773e+01 2.856e+01 1.021e+01 3.838e+00
 7.466e-01 2.248e-01]
bas 1, expnt(s) = [4.32]
bas 2, expnt(s) = [0.2248]
bas 3, expnt(s) = [0.06124]
bas 4, expnt(s) = [0.0167]
bas 5, expnt(s) = [10.239]
bas 6, expnt(s) = [13.55    2.917   0.7973  0.2185]
bas 7, expnt(s) = [0.2185]
bas 8, expnt(s) = [0.05611]
bas 9, expnt(s) = [0.0144]
bas 10, expnt(s) = [0.817]
bas 11, expnt(s) = [0.23]
bas 12, expnt(s) = [0.0647]
CPU time:         1.01
arg.atm = [[ 7 20  1 23  0  0]]
arg.bas = [[ 0  0  9  2  0 24 33  0]
 [ 0  0  1  1  0 51 52  0]
 [ 0  0  1  1  0 53 54  0]
 [ 0  0  1  1  0 55 56  0]
 [ 0  0  1  1  0 57 58  0]
 [ 0  1  1  1  0 59 60  0]
 [ 0  1  4  1  0 61 65  0]
 [ 0  1  1  1  0 69 70  0]
 [ 0  1  1  1  0 71 72  0]
 [ 0  1  1  1  0 73 74  0]
 [ 0  2  1  1  0 75 76  0]
 [ 0  2  1  1  0 77 78  0]
 [ 0  2  1  1  0 79 80  0]]
arg.env = [ 0.00000000e+00  0.00000000e+00  0.00000000e+00  0.00000000e+00
  0.00000000e+00  0.00000000e+00  0.00000000e+00  0.00000000e+00
  0.00000000e+00  0.00000000e+00  0.00000000e+00  0.00000000e+00
  0.00000000e+00  0.00000000e+00  0.00000000e+00  0.00000000e+00
  0.00000000e+00  0.00000000e+00  0.00000000e+00  0.00000000e+00
  0.00000000e+00  0.00000000e+00  0.00000000e+00  0.00000000e+00
  9.04600000e+03  1.35700000e+03  3.09300000e+02  8.77300000e+01
  2.85600000e+01  1.02100000e+01  3.83800000e+00  7.46600000e-01
  2.24800000e-01  1.64042177e+00  3.04409439e+00  5.10676225e+00
  7.47455423e+00  8.69974465e+00  6.47270078e+00  1.92757026e+00
  3.13312939e-02 -2.36230130e-03 -3.58549285e-01 -6.82365109e-01
 -1.11653344e+00 -1.77754839e+00 -2.10558871e+00 -2.28115991e+00
 -8.44017650e-01  1.11405261e+00  4.77421529e-01  4.32000000e+00
  7.57055701e+00  2.24800000e-01  8.24825833e-01  6.12400000e-02
  3.11022216e-01  1.67000000e-02  1.17368723e-01  1.02390000e+01
  5.34326017e+01  1.35500000e+01  2.91700000e+00  7.97300000e-01
  2.18500000e-01  3.02752891e+00  2.41519886e+00  1.12163995e+00
  2.01438243e-01  2.18500000e-01  4.35811508e-01  5.61100000e-02
  7.96681493e-02  1.44000000e-02  1.45524966e-02  8.17000000e-01
  1.83196843e+00  2.30000000e-01  1.99321019e-01  6.47000000e-02
  2.16576772e-02]
ecpbas  = []


******** <class 'pyscf.scf.uhf_symm.SymAdaptedUHF'> ********
method = SymAdaptedUHF
initial guess = atom
damping factor = 0
level_shift factor = 0
DIIS = <class 'pyscf.scf.diis.CDIIS'>
diis_start_cycle = 1
diis_space = 8
diis_damp = 0
SCF conv_tol = 1e-15
SCF conv_tol_grad = None
SCF ddm_tol = 1e-14
SCF max_cycles = 9999
direct_scf = False
chkfile to save SCF result = out.chk
max_memory 8000 MB (current use 123 MB)
number electrons alpha = 4  beta = 2
irrep_nelec {'Ag': 4, 'B3u': 1, 'B2u': 1}
Freeze 6 electrons in irreps ['Ag', 'B3u', 'B2u']
    0 free electrons in irreps B1g B2g B3g B1u
cond(S) = 155.1081933172893

WARN: Singularity detected in overlap matrix (condition number =  155). SCF may be inaccurate and hard to converge.

Set gradient conv threshold to 3.16228e-08
Spherically averaged atomic HF for {'N'}


******** <class '__main__.CustomAtomSphAverageRHF'> ********
method = CustomAtomSphAverageRHF
initial guess = minao
damping factor = 0
level_shift factor = 0
DIIS = <class 'pyscf.scf.diis.CDIIS'>
diis_start_cycle = 1
diis_space = 8
diis_damp = 0
SCF conv_tol = 1e-09
SCF conv_tol_grad = None
SCF ddm_tol = 1e-10
SCF max_cycles = 9999
direct_scf = False
chkfile to save SCF result = /tmp/tmpovfqiutv
max_memory 8000 MB (current use 124 MB)
atom = N
Set gradient conv threshold to 3.16228e-05
Initial guess from minao.
Nelec from initial guess = 6.998837350243671
E1 = -74.24741462608397  E_coul = 20.465748482715757
init E= -53.7816661433682
l = 0  e_0 = -15.5351343
l = 0  e_1 = -0.913883804
l = 0  e_2 = 0.0301529431
l = 0  e_3 = 0.221266381
l = 0  e_4 = 1.40648406
l = 0  e_5 = 16.487683
l = 1  e_0 = -0.165930655
l = 1  e_1 = 0.0361925003
l = 1  e_2 = 0.215430747
l = 1  e_3 = 1.15636825
l = 1  e_4 = 14.7397241
l = 2  e_0 = 0.213162951
l = 2  e_1 = 0.807466588
l = 2  e_2 = 2.57879634
    CPU time for initialize scf      0.05 sec, wall time      0.02 sec
l = 0  e_0 = -15.5351343
l = 0  e_1 = -0.913883804
l = 0  e_2 = 0.0301529431
l = 0  e_3 = 0.221266381
l = 0  e_4 = 1.40648406
l = 0  e_5 = 16.487683
l = 1  e_0 = -0.165930655
l = 1  e_1 = 0.0361925003
l = 1  e_2 = 0.215430747
l = 1  e_3 = 1.15636825
l = 1  e_4 = 14.7397241
l = 2  e_0 = 0.213162951
l = 2  e_1 = 0.807466588
l = 2  e_2 = 2.57879634
l = 0  occ = 2 + 0
l = 1  occ = 0 + 1
l = 2  occ = 0 + 0
l = 3  occ = 0 + 0
E1 = -72.538489010679  E_coul = 18.70845630635362
cycle= 1 E= -53.8300327043254  delta_E= -0.0484  |g|=    0  |ddm|= 0.399
    CPU time for cycle= 1      0.01 sec, wall time      0.00 sec
diis-norm(errvec)=0.286728
diis-c [-0.0822131  1.       ]
l = 0  e_0 = -15.994709
l = 0  e_1 = -1.09890725
l = 0  e_2 = 0.0268115913
l = 0  e_3 = 0.195382937
l = 0  e_4 = 1.27002331
l = 0  e_5 = 16.0978662
l = 1  e_0 = -0.317747322
l = 1  e_1 = 0.0352341948
l = 1  e_2 = 0.196245114
l = 1  e_3 = 1.02329884
l = 1  e_4 = 14.3244672
l = 2  e_0 = 0.206972571
l = 2  e_1 = 0.754992855
l = 2  e_2 = 2.42147862
l = 0  occ = 2 + 0
l = 1  occ = 0 + 1
l = 2  occ = 0 + 0
l = 3  occ = 0 + 0
E1 = -73.44063158573181  E_coul = 19.600797100868398
cycle= 2 E= -53.8398344848634  delta_E= -0.0098  |g|=    0  |ddm|= 0.423
    CPU time for cycle= 2      0.01 sec, wall time      0.00 sec
diis-norm(errvec)=0.122821
diis-c [-0.00074377  0.29555784  0.70444216]
l = 0  e_0 = -15.8249981
l = 0  e_1 = -1.0365694
l = 0  e_2 = 0.0281067508
l = 0  e_3 = 0.204051952
l = 0  e_4 = 1.31596058
l = 0  e_5 = 16.239581
l = 1  e_0 = -0.261514499
l = 1  e_1 = 0.0357115807
l = 1  e_2 = 0.204002527
l = 1  e_3 = 1.07225476
l = 1  e_4 = 14.4773286
l = 2  e_0 = 0.209283938
l = 2  e_1 = 0.77394265
l = 2  e_2 = 2.47852472
l = 0  occ = 2 + 0
l = 1  occ = 0 + 1
l = 2  occ = 0 + 0
l = 3  occ = 0 + 0
E1 = -73.13590500800763  E_coul = 19.293050571566912
cycle= 3 E= -53.8428544364407  delta_E= -0.00302  |g|=    0  |ddm|= 0.0929
    CPU time for cycle= 3      0.00 sec, wall time      0.00 sec
diis-norm(errvec)=0.0115022
diis-c [-3.27616712e-06 -9.88941605e-02 -1.31404462e-01  1.23029862e+00]
l = 0  e_0 = -15.8310032
l = 0  e_1 = -1.04033908
l = 0  e_2 = 0.0280742898
l = 0  e_3 = 0.203637754
l = 0  e_4 = 1.31377827
l = 0  e_5 = 16.2343012
l = 1  e_0 = -0.263081522
l = 1  e_1 = 0.0357179832
l = 1  e_2 = 0.203957023
l = 1  e_3 = 1.07109974
l = 1  e_4 = 14.4720375
l = 2  e_0 = 0.209252473
l = 2  e_1 = 0.773415225
l = 2  e_2 = 2.47688529
l = 0  occ = 2 + 0
l = 1  occ = 0 + 1
l = 2  occ = 0 + 0
l = 3  occ = 0 + 0
E1 = -73.14818084843532  E_coul = 19.30530901098308
cycle= 4 E= -53.8428718374522  delta_E= -1.74e-05  |g|=    0  |ddm|= 0.022
    CPU time for cycle= 4      0.01 sec, wall time      0.00 sec
diis-norm(errvec)=0.00104907
diis-c [-4.43858951e-08 -6.11882888e-03 -4.76672494e-03  1.73394538e-02
  9.93546100e-01]
l = 0  e_0 = -15.8318017
l = 0  e_1 = -1.04082443
l = 0  e_2 = 0.0280479208
l = 0  e_3 = 0.203499529
l = 0  e_4 = 1.3133368
l = 0  e_5 = 16.2335367
l = 1  e_0 = -0.263417018
l = 1  e_1 = 0.0357105277
l = 1  e_2 = 0.203855406
l = 1  e_3 = 1.07069245
l = 1  e_4 = 14.4712659
l = 2  e_0 = 0.20920716
l = 2  e_1 = 0.773201432
l = 2  e_2 = 2.47640973
l = 0  occ = 2 + 0
l = 1  occ = 0 + 1
l = 2  occ = 0 + 0
l = 3  occ = 0 + 0
E1 = -73.15018489341395  E_coul = 19.307312878014535
cycle= 5 E= -53.8428720153994  delta_E= -1.78e-07  |g|=    0  |ddm|= 0.00159
    CPU time for cycle= 5      0.00 sec, wall time      0.00 sec
diis-norm(errvec)=3.20909e-05
diis-c [-6.89131464e-11  5.41316857e-04  1.49628442e-04 -1.07536287e-03
 -1.37540346e-01  1.13792476e+00]
l = 0  e_0 = -15.8318019
l = 0  e_1 = -1.04083722
l = 0  e_2 = 0.0280455336
l = 0  e_3 = 0.203490667
l = 0  e_4 = 1.31332093
l = 0  e_5 = 16.2335316
l = 1  e_0 = -0.263424143
l = 1  e_1 = 0.0357100592
l = 1  e_2 = 0.203849578
l = 1  e_3 = 1.07067786
l = 1  e_4 = 14.4712629
l = 2  e_0 = 0.209203104
l = 2  e_1 = 0.773189679
l = 2  e_2 = 2.47639303
l = 0  occ = 2 + 0
l = 1  occ = 0 + 1
l = 2  occ = 0 + 0
l = 3  occ = 0 + 0
E1 = -73.15018659109484  E_coul = 19.30731457532775
cycle= 6 E= -53.8428720157671  delta_E= -3.68e-10  |g|=    0  |ddm|= 5.06e-05
    CPU time for cycle= 6      0.01 sec, wall time      0.00 sec
diis-norm(errvec)=1.25688e-06
diis-c [-2.63441758e-13 -1.40060871e-05  2.97955346e-05 -2.43283796e-04
  1.04491937e-02 -1.04945958e-01  1.09472426e+00]
l = 0  e_0 = -15.8318031
l = 0  e_1 = -1.04083831
l = 0  e_2 = 0.0280454606
l = 0  e_3 = 0.203490566
l = 0  e_4 = 1.3133206
l = 0  e_5 = 16.2335306
l = 1  e_0 = -0.263424907
l = 1  e_1 = 0.0357100604
l = 1  e_2 = 0.203849541
l = 1  e_3 = 1.07067748
l = 1  e_4 = 14.4712618
l = 2  e_0 = 0.209202985
l = 2  e_1 = 0.773189375
l = 2  e_2 = 2.47639243
l = 0  occ = 2 + 0
l = 1  occ = 0 + 1
l = 2  occ = 0 + 0
l = 3  occ = 0 + 0
E1 = -73.15018607573293  E_coul = 19.307314059964394
cycle= 7 E= -53.8428720157685  delta_E= -1.45e-12  |g|=    0  |ddm|= 1.09e-06
    CPU time for cycle= 7      0.01 sec, wall time      0.00 sec
diis-norm(errvec)=8.96102e-08
diis-c [-8.96729828e-16  9.99309051e-07 -3.67056901e-06  3.39637536e-05
 -1.15614997e-03  1.13710806e-02 -1.46802633e-01  1.13655641e+00]
l = 0  e_0 = -15.8318032
l = 0  e_1 = -1.04083834
l = 0  e_2 = 0.0280454534
l = 0  e_3 = 0.203490553
l = 0  e_4 = 1.31332056
l = 0  e_5 = 16.2335305
l = 1  e_0 = -0.263424942
l = 1  e_1 = 0.035710059
l = 1  e_2 = 0.203849529
l = 1  e_3 = 1.07067744
l = 1  e_4 = 14.4712617
l = 2  e_0 = 0.209202976
l = 2  e_1 = 0.773189351
l = 2  e_2 = 2.47639239
l = 0  occ = 2 + 0
l = 1  occ = 0 + 1
l = 2  occ = 0 + 0
l = 3  occ = 0 + 0
E1 = -73.150186134573  E_coul = 19.30731411880445
cycle= 8 E= -53.8428720157686  delta_E= -2.13e-14  |g|=    0  |ddm|= 9.67e-08
    CPU time for cycle= 8      0.00 sec, wall time      0.00 sec
diis-norm(errvec)=4.10803e-09
Linear dependence found in DIIS error vectors.
diis-c [-2.17074651e-16  5.18410449e-07 -1.70287648e-06  1.56997415e-05
 -5.52171059e-04  5.42894437e-03 -6.79588170e-02  4.93477932e-01
  5.69589597e-01]
l = 0  e_0 = -15.8318032
l = 0  e_1 = -1.04083835
l = 0  e_2 = 0.0280454534
l = 0  e_3 = 0.203490553
l = 0  e_4 = 1.31332056
l = 0  e_5 = 16.2335305
l = 1  e_0 = -0.263424942
l = 1  e_1 = 0.035710059
l = 1  e_2 = 0.203849529
l = 1  e_3 = 1.07067744
l = 1  e_4 = 14.4712617
l = 2  e_0 = 0.209202976
l = 2  e_1 = 0.773189351
l = 2  e_2 = 2.47639239
l = 0  occ = 2 + 0
l = 1  occ = 0 + 1
l = 2  occ = 0 + 0
l = 3  occ = 0 + 0
E1 = -73.15018613498495  E_coul = 19.307314119216443
cycle= 9 E= -53.8428720157685  delta_E= 4.97e-14  |g|=    0  |ddm|= 2.31e-09
    CPU time for cycle= 9      0.01 sec, wall time      0.00 sec
diis-norm(errvec)=2.01232e-09
Linear dependence found in DIIS error vectors.
diis-c [-9.13356880e-16  3.62713785e-01 -1.26040035e-06  1.13674783e-05
 -2.88661624e-04  2.94306998e-03 -4.12734175e-02  3.14062207e-01
  3.61832909e-01]
l = 0  e_0 = -15.8318032
l = 0  e_1 = -1.04083835
l = 0  e_2 = 0.0280454534
l = 0  e_3 = 0.203490553
l = 0  e_4 = 1.31332056
l = 0  e_5 = 16.2335305
l = 1  e_0 = -0.263424942
l = 1  e_1 = 0.035710059
l = 1  e_2 = 0.203849529
l = 1  e_3 = 1.07067744
l = 1  e_4 = 14.4712617
l = 2  e_0 = 0.209202976
l = 2  e_1 = 0.773189351
l = 2  e_2 = 2.47639239
l = 0  occ = 2 + 0
l = 1  occ = 0 + 1
l = 2  occ = 0 + 0
l = 3  occ = 0 + 0
E1 = -73.1501861327131  E_coul = 19.30731411694457
cycle= 10 E= -53.8428720157685  delta_E= -2.84e-14  |g|=    0  |ddm|= 7.51e-10
    CPU time for cycle= 10      0.01 sec, wall time      0.00 sec
diis-norm(errvec)=2.07199e-09
Linear dependence found in DIIS error vectors.
diis-c [-1.68057152e-16  2.56924267e-01  2.56986890e-01  9.61837167e-07
 -1.81105022e-05  2.49143311e-04 -1.34576886e-02  2.42489991e-01
  2.56824546e-01]
l = 0  e_0 = -15.8318032
l = 0  e_1 = -1.04083835
l = 0  e_2 = 0.0280454534
l = 0  e_3 = 0.203490553
l = 0  e_4 = 1.31332056
l = 0  e_5 = 16.2335305
l = 1  e_0 = -0.263424943
l = 1  e_1 = 0.035710059
l = 1  e_2 = 0.203849529
l = 1  e_3 = 1.07067744
l = 1  e_4 = 14.4712617
l = 2  e_0 = 0.209202976
l = 2  e_1 = 0.773189351
l = 2  e_2 = 2.47639239
l = 0  occ = 2 + 0
l = 1  occ = 0 + 1
l = 2  occ = 0 + 0
l = 3  occ = 0 + 0
E1 = -73.15018613668599  E_coul = 19.307314120917486
cycle= 11 E= -53.8428720157685  delta_E= 2.84e-14  |g|=    0  |ddm|= 2.47e-09
    CPU time for cycle= 11      0.00 sec, wall time      0.00 sec
diis-norm(errvec)=2.03034e-09
Linear dependence found in DIIS error vectors.
diis-c [-8.53364633e-17  2.04452239e-01  2.04502625e-01  2.04351315e-01
 -6.26356572e-06  1.89133608e-04 -1.08449996e-02  1.92983431e-01
  2.04372520e-01]
l = 0  e_0 = -15.8318032
l = 0  e_1 = -1.04083835
l = 0  e_2 = 0.0280454534
l = 0  e_3 = 0.203490553
l = 0  e_4 = 1.31332056
l = 0  e_5 = 16.2335305
l = 1  e_0 = -0.263424943
l = 1  e_1 = 0.035710059
l = 1  e_2 = 0.203849529
l = 1  e_3 = 1.07067744
l = 1  e_4 = 14.4712617
l = 2  e_0 = 0.209202975
l = 2  e_1 = 0.773189351
l = 2  e_2 = 2.47639239
l = 0  occ = 2 + 0
l = 1  occ = 0 + 1
l = 2  occ = 0 + 0
l = 3  occ = 0 + 0
E1 = -73.15018613941383  E_coul = 19.3073141236453
cycle= 12 E= -53.8428720157685  delta_E= -2.84e-14  |g|=    0  |ddm|= 3.15e-09
    CPU time for cycle= 12      0.01 sec, wall time      0.00 sec
diis-norm(errvec)=2.47154e-09
Linear dependence found in DIIS error vectors.
diis-c [-3.53820091e-17  1.70226818e-01  1.70228050e-01  1.70193189e-01
  1.70311239e-01  9.97141893e-05 -1.03504800e-02  1.59168718e-01
  1.70122751e-01]
l = 0  e_0 = -15.8318032
l = 0  e_1 = -1.04083835
l = 0  e_2 = 0.0280454533
l = 0  e_3 = 0.203490553
l = 0  e_4 = 1.31332056
l = 0  e_5 = 16.2335305
l = 1  e_0 = -0.263424944
l = 1  e_1 = 0.035710059
l = 1  e_2 = 0.203849529
l = 1  e_3 = 1.07067744
l = 1  e_4 = 14.4712617
l = 2  e_0 = 0.209202975
l = 2  e_1 = 0.77318935
l = 2  e_2 = 2.47639239
l = 0  occ = 2 + 0
l = 1  occ = 0 + 1
l = 2  occ = 0 + 0
l = 3  occ = 0 + 0
E1 = -73.15018614312028  E_coul = 19.307314127351695
cycle= 13 E= -53.8428720157686  delta_E= -4.97e-14  |g|=    0  |ddm|= 1.61e-09
    CPU time for cycle= 13      0.00 sec, wall time      0.00 sec
diis-norm(errvec)=3.75611e-09
Linear dependence found in DIIS error vectors.
diis-c [-1.45191085e-16  1.45004774e-01  1.44960033e-01  1.45024827e-01
  1.45136713e-01  1.45279806e-01 -7.21289038e-03  1.36850527e-01
  1.44956210e-01]
l = 0  e_0 = -15.8318032
l = 0  e_1 = -1.04083835
l = 0  e_2 = 0.0280454533
l = 0  e_3 = 0.203490553
l = 0  e_4 = 1.31332056
l = 0  e_5 = 16.2335305
l = 1  e_0 = -0.263424944
l = 1  e_1 = 0.035710059
l = 1  e_2 = 0.203849529
l = 1  e_3 = 1.07067744
l = 1  e_4 = 14.4712617
l = 2  e_0 = 0.209202975
l = 2  e_1 = 0.773189351
l = 2  e_2 = 2.47639239
l = 0  occ = 2 + 0
l = 1  occ = 0 + 1
l = 2  occ = 0 + 0
l = 3  occ = 0 + 0
E1 = -73.15018614124355  E_coul = 19.307314125475017
cycle= 14 E= -53.8428720157685  delta_E= 4.97e-14  |g|=    0  |ddm|= 4.07e-10
    CPU time for cycle= 14      0.01 sec, wall time      0.00 sec
diis-norm(errvec)=3.09639e-09
Linear dependence found in DIIS error vectors.
diis-c [-3.11228916e-17  1.25000000e-01  1.25000000e-01  1.25000000e-01
  1.25000000e-01  1.25000000e-01  1.25000000e-01  1.25000000e-01
  1.25000000e-01]
l = 0  e_0 = -15.8318032
l = 0  e_1 = -1.04083835
l = 0  e_2 = 0.0280454535
l = 0  e_3 = 0.203490553
l = 0  e_4 = 1.31332056
l = 0  e_5 = 16.2335305
l = 1  e_0 = -0.263424943
l = 1  e_1 = 0.035710059
l = 1  e_2 = 0.203849529
l = 1  e_3 = 1.07067744
l = 1  e_4 = 14.4712617
l = 2  e_0 = 0.209202976
l = 2  e_1 = 0.773189351
l = 2  e_2 = 2.47639239
l = 0  occ = 2 + 0
l = 1  occ = 0 + 1
l = 2  occ = 0 + 0
l = 3  occ = 0 + 0
E1 = -73.15018614184157  E_coul = 19.307314126073106
cycle= 15 E= -53.8428720157685  delta_E= 7.11e-14  |g|=    0  |ddm|= 3.46e-09
    CPU time for cycle= 15      0.01 sec, wall time      0.00 sec
diis-norm(errvec)=2.62395e-09
Linear dependence found in DIIS error vectors.
diis-c [-2.89052492e-16  1.25000000e-01  1.25000000e-01  1.25000000e-01
  1.25000000e-01  1.25000000e-01  1.25000000e-01  1.25000000e-01
  1.25000000e-01]
l = 0  e_0 = -15.8318032
l = 0  e_1 = -1.04083835
l = 0  e_2 = 0.0280454533
l = 0  e_3 = 0.203490553
l = 0  e_4 = 1.31332056
l = 0  e_5 = 16.2335305
l = 1  e_0 = -0.263424942
l = 1  e_1 = 0.035710059
l = 1  e_2 = 0.203849529
l = 1  e_3 = 1.07067744
l = 1  e_4 = 14.4712617
l = 2  e_0 = 0.209202975
l = 2  e_1 = 0.773189351
l = 2  e_2 = 2.47639239
l = 0  occ = 2 + 0
l = 1  occ = 0 + 1
l = 2  occ = 0 + 0
l = 3  occ = 0 + 0
E1 = -73.1501861346783  E_coul = 19.307314118909783
cycle= 16 E= -53.8428720157685  delta_E= -4.26e-14  |g|=    0  |ddm|= 2.12e-09
    CPU time for cycle= 16      0.00 sec, wall time      0.00 sec
diis-norm(errvec)=5.53542e-10
Linear dependence found in DIIS error vectors.
diis-c [-2.89052492e-16  1.25000000e-01  1.25000000e-01  1.25000000e-01
  1.25000000e-01  1.25000000e-01  1.25000000e-01  1.25000000e-01
  1.25000000e-01]
l = 0  e_0 = -15.8318032
l = 0  e_1 = -1.04083835
l = 0  e_2 = 0.0280454533
l = 0  e_3 = 0.203490553
l = 0  e_4 = 1.31332056
l = 0  e_5 = 16.2335305
l = 1  e_0 = -0.263424942
l = 1  e_1 = 0.035710059
l = 1  e_2 = 0.203849529
l = 1  e_3 = 1.07067744
l = 1  e_4 = 14.4712617
l = 2  e_0 = 0.209202975
l = 2  e_1 = 0.773189351
l = 2  e_2 = 2.47639239
l = 0  occ = 2 + 0
l = 1  occ = 0 + 1
l = 2  occ = 0 + 0
l = 3  occ = 0 + 0
E1 = -73.15018613458435  E_coul = 19.307314118815803
cycle= 17 E= -53.8428720157685  delta_E= -3.55e-14  |g|=    0  |ddm|= 7.04e-11
    CPU time for cycle= 17      0.01 sec, wall time      0.00 sec
l = 0  e_0 = -15.8318032
l = 0  e_1 = -1.04083835
l = 0  e_2 = 0.0280454533
l = 0  e_3 = 0.203490553
l = 0  e_4 = 1.31332056
l = 0  e_5 = 16.2335305
l = 1  e_0 = -0.263424943
l = 1  e_1 = 0.035710059
l = 1  e_2 = 0.203849529
l = 1  e_3 = 1.07067744
l = 1  e_4 = 14.4712617
l = 2  e_0 = 0.209202975
l = 2  e_1 = 0.773189351
l = 2  e_2 = 2.47639239
l = 0  occ = 2 + 0
l = 1  occ = 0 + 1
l = 2  occ = 0 + 0
l = 3  occ = 0 + 0
E1 = -73.15018613609718  E_coul = 19.30731412032866
Extra cycle  E= -53.8428720157685  delta_E= 2.13e-14  |g|=    0  |ddm|= 7.04e-11
    CPU time for scf_cycle      0.17 sec, wall time      0.05 sec
    CPU time for SCF      0.17 sec, wall time      0.05 sec
Atomic HF for atom  N  converged. SCF energy = -53.8428720157685

Atom N, E = -53.8428720158
Nelec from initial guess = (np.float64(3.5), np.float64(3.5))
E1 = -73.15018613609718  Ecoul = 19.30731412032866
init E= -53.8428720157685
    CPU time for initialize scf      0.20 sec, wall time      0.06 sec
alpha HOMO (B3u) = -0.26342494257919  LUMO (B1u) = -0.263424942579189
alpha irrep_nelec = [2, 0, 0, 0, 0, 1, 1]
beta  irrep_nelec = [2, 0, 0, 0, 0, 0, 0]
alpha-Ag nocc = 2  HOMO = -1.04083834627233  LUMO = 0.0280454533156763
   mo_energy = [-15.83180319  -1.04083835   0.02804545   0.20349055   0.20920298
   0.20920298   0.77318935   0.77318935   1.31332056   2.47639239
   2.47639239  16.23353053]
alpha-B1g nocc = 0
   mo_energy = [0.20920298 0.77318935 2.47639239]
alpha-B2g nocc = 0
   mo_energy = [0.20920298 0.77318935 2.47639239]
alpha-B3g nocc = 0
   mo_energy = [0.20920298 0.77318935 2.47639239]
alpha-B1u nocc = 0
   mo_energy = [-0.26342494  0.03571006  0.20384953  1.07067744 14.47126169]
alpha-B2u nocc = 1  HOMO = -0.263424942579191  LUMO = 0.0357100590111777

WARN: alpha-B2u HOMO -0.263424942579191 > system LUMO -0.263424942579189

   mo_energy = [-0.26342494  0.03571006  0.20384953  1.07067744 14.47126169]
alpha-B3u nocc = 1  HOMO = -0.26342494257919  LUMO = 0.0357100590111778

WARN: alpha-B3u HOMO -0.26342494257919 > system LUMO -0.263424942579189

   mo_energy = [-0.26342494  0.03571006  0.20384953  1.07067744 14.47126169]
beta-Ag nocc = 2  HOMO = -1.04083834627233  LUMO = 0.0280454533156763
   mo_energy = [-15.83180319  -1.04083835   0.02804545   0.20349055   0.20920298
   0.20920298   0.77318935   0.77318935   1.31332056   2.47639239
   2.47639239  16.23353053]
beta-B1g nocc = 0
   mo_energy = [0.20920298 0.77318935 2.47639239]
beta-B2g nocc = 0
   mo_energy = [0.20920298 0.77318935 2.47639239]
beta-B3g nocc = 0
   mo_energy = [0.20920298 0.77318935 2.47639239]
beta-B1u nocc = 0
   mo_energy = [-0.26342494  0.03571006  0.20384953  1.07067744 14.47126169]
beta-B2u nocc = 0
   mo_energy = [-0.26342494  0.03571006  0.20384953  1.07067744 14.47126169]
beta-B3u nocc = 0
   mo_energy = [-0.26342494  0.03571006  0.20384953  1.07067744 14.47126169]
multiplicity <S^2> = 2  2S+1 = 3
E1 = -68.63118562769311  Ecoul = 14.88030492619831
cycle= 1 E= -53.7508807014948  delta_E= 0.092  |g|= 0.406  |ddm|=  0.4
    CPU time for cycle= 1      0.03 sec, wall time      0.01 sec
diis-norm(errvec)=0.573618
diis-c [-0.32903708  1.        ]
alpha HOMO (B3u) = -1.1883494024194  LUMO (B1u) = -0.620363239050419
alpha irrep_nelec = [2, 0, 0, 0, 0, 1, 1]
beta  irrep_nelec = [2, 0, 0, 0, 0, 0, 0]
alpha-Ag nocc = 2  HOMO = -1.74973162642666  LUMO = -0.159811335721408
   mo_energy = [-1.67080276e+01 -1.74973163e+00 -1.59811336e-01 -3.32306961e-02
 -6.78024049e-03 -6.23030993e-03  3.76876306e-01  3.88391606e-01
  8.08377510e-01  1.87582921e+00  1.88900422e+00  1.54234239e+01]
alpha-B1g nocc = 0
   mo_energy = [-0.00623031  0.37687631  1.87582921]
alpha-B2g nocc = 0
   mo_energy = [-0.00669757  0.3851084   1.88520941]
alpha-B3g nocc = 0
   mo_energy = [-0.00669757  0.3851084   1.88520941]
alpha-B1u nocc = 0
   mo_energy = [-0.62036324 -0.10059933 -0.01765808  0.58622859 13.64006289]
alpha-B2u nocc = 1  HOMO = -1.1883494024194  LUMO = -0.104244479198866
   mo_energy = [-1.1883494  -0.10424448 -0.02271886  0.55550793 13.62722559]
alpha-B3u nocc = 1  HOMO = -1.1883494024194  LUMO = -0.104244479198865
   mo_energy = [-1.1883494  -0.10424448 -0.02271886  0.55550793 13.62722559]
beta-Ag nocc = 2  HOMO = -1.49123650468123  LUMO = -0.144508862718851
   mo_energy = [-1.66610073e+01 -1.49123650e+00 -1.44508863e-01 -2.14806693e-02
  5.40955428e-04  8.40636235e-03  4.19711831e-01  4.51959313e-01
  8.66674176e-01  1.94730870e+00  2.00800440e+00  1.54673829e+01]
beta-B1g nocc = 0
   mo_energy = [0.00840636 0.45195931 2.0080044 ]
beta-B2g nocc = 0
   mo_energy = [1.59101737e-03 4.27882898e-01 1.96193692e+00]
beta-B3g nocc = 0
   mo_energy = [1.59101737e-03 4.27882898e-01 1.96193692e+00]
beta-B1u nocc = 0
   mo_energy = [-5.54538511e-01 -9.79647208e-02 -1.34112976e-02  6.09958026e-01
  1.36578071e+01]
beta-B2u nocc = 0
   mo_energy = [-4.89255118e-01 -9.20380920e-02 -3.75870557e-03  6.52430238e-01
  1.37003338e+01]
beta-B3u nocc = 0
   mo_energy = [-4.89255118e-01 -9.20380920e-02 -3.75870557e-03  6.52430238e-01
  1.37003338e+01]
multiplicity <S^2> = 2.0017157  2S+1 = 3.0011436
E1 = -69.98353641690252  Ecoul = 16.107564626718037
cycle= 2 E= -53.8759717901845  delta_E= -0.125  |g|= 0.0973  |ddm|= 0.439
    CPU time for cycle= 2      0.03 sec, wall time      0.01 sec
diis-norm(errvec)=0.137651
diis-c [-0.0189465   0.00209914  0.99790086]
alpha HOMO (B3u) = -1.10839262702441  LUMO (B1u) = -0.470207823670745
alpha irrep_nelec = [2, 0, 0, 0, 0, 1, 1]
beta  irrep_nelec = [2, 0, 0, 0, 0, 0, 0]
alpha-Ag nocc = 2  HOMO = -1.62762560471446  LUMO = -0.144954015921167
   mo_energy = [-1.63334092e+01 -1.62762560e+00 -1.44954016e-01 -2.09590937e-02
  1.58272452e-03  4.03569868e-03  4.23574150e-01  4.30887918e-01
  8.94984079e-01  1.97836528e+00  2.00474601e+00  1.57338949e+01]
alpha-B1g nocc = 0
   mo_energy = [0.0040357  0.42357415 1.97836528]
alpha-B2g nocc = 0
   mo_energy = [1.93113452e-03 4.28645304e-01 1.99715370e+00]
alpha-B3g nocc = 0
   mo_energy = [1.93113452e-03 4.28645304e-01 1.99715370e+00]
alpha-B1u nocc = 0
   mo_energy = [-4.70207824e-01 -9.32327947e-02 -4.19799562e-03  6.89351784e-01
  1.39809774e+01]
alpha-B2u nocc = 1  HOMO = -1.10839262702441  LUMO = -0.0968755031251178
   mo_energy = [-1.10839263e+00 -9.68755031e-02 -1.30084561e-02  6.26934586e-01
  1.39553840e+01]
alpha-B3u nocc = 1  HOMO = -1.10839262702441  LUMO = -0.0968755031251182
   mo_energy = [-1.10839263e+00 -9.68755031e-02 -1.30084561e-02  6.26934586e-01
  1.39553840e+01]
beta-Ag nocc = 2  HOMO = -1.32997742572074  LUMO = -0.13776943293157
   mo_energy = [-1.62670667e+01 -1.32997743e+00 -1.37769433e-01 -1.13543466e-02
  4.52135387e-03  1.00578402e-02  4.54033555e-01  4.83085780e-01
  9.62863233e-01  2.07303906e+00  2.14316192e+00  1.57943318e+01]
beta-B1g nocc = 0
   mo_energy = [0.01005784 0.48308578 2.14316192]
beta-B2g nocc = 0
   mo_energy = [0.00529064 0.4611916  2.0895758 ]
beta-B3g nocc = 0
   mo_energy = [0.00529064 0.4611916  2.0895758 ]
beta-B1u nocc = 0
   mo_energy = [-4.09793338e-01 -9.10129816e-02  9.50685557e-04  7.18254833e-01
  1.40049568e+01]
beta-B2u nocc = 0
   mo_energy = [-3.37524715e-01 -8.59808543e-02  1.28221462e-02  7.70075254e-01
  1.40617090e+01]
beta-B3u nocc = 0
   mo_energy = [-3.37524715e-01 -8.59808543e-02  1.28221462e-02  7.70075254e-01
  1.40617090e+01]
multiplicity <S^2> = 2.0041665  2S+1 = 3.0027764
E1 = -70.00128943492129  Ecoul = 16.120150015625896
cycle= 3 E= -53.8811394192954  delta_E= -0.00517  |g|= 0.0278  |ddm|= 0.189
    CPU time for cycle= 3      0.03 sec, wall time      0.01 sec
diis-norm(errvec)=0.0393481
diis-c [-6.06893026e-04 -2.00950548e-02 -2.58115202e-01  1.27821026e+00]
alpha HOMO (B2u) = -1.1123198224662  LUMO (B1u) = -0.460801825290599
alpha irrep_nelec = [2, 0, 0, 0, 0, 1, 1]
beta  irrep_nelec = [2, 0, 0, 0, 0, 0, 0]
alpha-Ag nocc = 2  HOMO = -1.62247212735168  LUMO = -0.143521834839356
   mo_energy = [-1.63236637e+01 -1.62247213e+00 -1.43521835e-01 -1.96778390e-02
  2.70538124e-03  5.34076988e-03  4.28342388e-01  4.35329111e-01
  9.00599289e-01  1.98215514e+00  2.01170762e+00  1.57444366e+01]
alpha-B1g nocc = 0
   mo_energy = [0.00534077 0.42834239 1.98215514]
alpha-B2g nocc = 0
   mo_energy = [0.00303486 0.43315159 2.00318471]
alpha-B3g nocc = 0
   mo_energy = [0.00303486 0.43315159 2.00318471]
alpha-B1u nocc = 0
   mo_energy = [-4.60801825e-01 -9.27163151e-02 -3.10360788e-03  6.95385638e-01
  1.39919871e+01]
alpha-B2u nocc = 1  HOMO = -1.1123198224662  LUMO = -0.0966051407079395
   mo_energy = [-1.11231982e+00 -9.66051407e-02 -1.25864847e-02  6.28528791e-01
  1.39651265e+01]
alpha-B3u nocc = 1  HOMO = -1.1123198224662  LUMO = -0.0966051407079395
   mo_energy = [-1.11231982e+00 -9.66051407e-02 -1.25864847e-02  6.28528791e-01
  1.39651265e+01]
beta-Ag nocc = 2  HOMO = -1.31039444732001  LUMO = -0.136797500695464
   mo_energy = [-1.62531410e+01 -1.31039445e+00 -1.36797501e-01 -9.71864375e-03
  4.78505334e-03  9.99349345e-03  4.55903977e-01  4.84661177e-01
  9.74890577e-01  2.08154649e+00  2.15388588e+00  1.58109122e+01]
beta-B1g nocc = 0
   mo_energy = [0.00999349 0.48466118 2.15388588]
beta-B2g nocc = 0
   mo_energy = [0.00552969 0.46292224 2.09850653]
beta-B3g nocc = 0
   mo_energy = [0.00552969 0.46292224 2.09850653]
beta-B1u nocc = 0
   mo_energy = [-4.03362624e-01 -9.04434329e-02  2.30547928e-03  7.25715699e-01
  1.40172559e+01]
beta-B2u nocc = 0
   mo_energy = [-0.3280127  -0.0853942   0.01467287  0.77935963 14.07628517]
beta-B3u nocc = 0
   mo_energy = [-0.3280127  -0.0853942   0.01467287  0.77935963 14.07628517]
multiplicity <S^2> = 2.0061036  2S+1 = 3.0040663
E1 = -70.01935029755134  Ecoul = 16.137522732629016
cycle= 4 E= -53.8818275649223  delta_E= -0.000688  |g|= 0.00519  |ddm|= 0.0854
    CPU time for cycle= 4      0.03 sec, wall time      0.01 sec
diis-norm(errvec)=0.00734465
diis-c [-1.36896018e-05  2.01449465e-03  4.60202911e-02 -3.41891449e-01
  1.29385666e+00]
alpha HOMO (B2u) = -1.11434633350221  LUMO (B1u) = -0.46202637813698
alpha irrep_nelec = [2, 0, 0, 0, 0, 1, 1]
beta  irrep_nelec = [2, 0, 0, 0, 0, 0, 0]
alpha-Ag nocc = 2  HOMO = -1.62435378786398  LUMO = -0.143696396722921
   mo_energy = [-1.63265934e+01 -1.62435379e+00 -1.43696397e-01 -1.98187814e-02
  2.65619925e-03  5.25129052e-03  4.28255022e-01  4.35183383e-01
  8.99484523e-01  1.98057949e+00  2.01037780e+00  1.57417339e+01]
alpha-B1g nocc = 0
   mo_energy = [0.00525129 0.42825502 1.98057949]
alpha-B2g nocc = 0
   mo_energy = [0.0029833  0.43302865 2.00179678]
alpha-B3g nocc = 0
   mo_energy = [0.0029833  0.43302865 2.00179678]
alpha-B1u nocc = 0
   mo_energy = [-4.62026378e-01 -9.27827258e-02 -3.25080799e-03  6.94400342e-01
  1.39900168e+01]
alpha-B2u nocc = 1  HOMO = -1.11434633350221  LUMO = -0.0968186465759402
   mo_energy = [-1.11434633e+00 -9.68186466e-02 -1.28899420e-02  6.27031699e-01
  1.39626553e+01]
alpha-B3u nocc = 1  HOMO = -1.11434633350222  LUMO = -0.0968186465759405
   mo_energy = [-1.11434633e+00 -9.68186466e-02 -1.28899420e-02  6.27031699e-01
  1.39626553e+01]
beta-Ag nocc = 2  HOMO = -1.3088195746921  LUMO = -0.136740661975281
   mo_energy = [-1.62537769e+01 -1.30881957e+00 -1.36740662e-01 -9.63654618e-03
  4.69090146e-03  9.88241831e-03  4.55202452e-01  4.83875830e-01
  9.75339691e-01  2.08050135e+00  2.15286086e+00  1.58104763e+01]
beta-B1g nocc = 0
   mo_energy = [0.00988242 0.48387583 2.15286086]
beta-B2g nocc = 0
   mo_energy = [0.00543703 0.46219942 2.09747174]
beta-B3g nocc = 0
   mo_energy = [0.00543703 0.46219942 2.09747174]
beta-B1u nocc = 0
   mo_energy = [-4.04646952e-01 -9.04562748e-02  2.26493900e-03  7.25106940e-01
  1.40156501e+01]
beta-B2u nocc = 0
   mo_energy = [-0.32902531 -0.08541003  0.01462614  0.77882256 14.07495268]
beta-B3u nocc = 0
   mo_energy = [-0.32902531 -0.08541003  0.01462614  0.77882256 14.07495268]
multiplicity <S^2> = 2.0065937  2S+1 = 3.0043926
E1 = -70.02309704690083  Ecoul = 16.141246633404776
cycle= 5 E= -53.8818504134961  delta_E= -2.28e-05  |g|= 0.000632  |ddm|= 0.0178
    CPU time for cycle= 5      0.03 sec, wall time      0.01 sec
diis-norm(errvec)=0.000893544
diis-c [-7.40099028e-08  1.08512736e-04 -8.09954561e-03  6.43039234e-02
 -3.22064438e-01  1.26575155e+00]
alpha HOMO (B2u) = -1.11428504083314  LUMO (B1u) = -0.461933186502117
alpha irrep_nelec = [2, 0, 0, 0, 0, 1, 1]
beta  irrep_nelec = [2, 0, 0, 0, 0, 0, 0]
alpha-Ag nocc = 2  HOMO = -1.62441069922797  LUMO = -0.143700741955604
   mo_energy = [-1.63262063e+01 -1.62441070e+00 -1.43700742e-01 -1.98200961e-02
  2.65968518e-03  5.24893905e-03  4.28335051e-01  4.35238211e-01
  8.99495584e-01  1.98070433e+00  2.01048267e+00  1.57420214e+01]
alpha-B1g nocc = 0
   mo_energy = [0.00524894 0.42833505 1.98070433]
alpha-B2g nocc = 0
   mo_energy = [0.00298656 0.43309069 2.00190574]
alpha-B3g nocc = 0
   mo_energy = [0.00298656 0.43309069 2.00190574]
alpha-B1u nocc = 0
   mo_energy = [-4.61933187e-01 -9.27774189e-02 -3.24086280e-03  6.94506550e-01
  1.39904960e+01]
alpha-B2u nocc = 1  HOMO = -1.11428504083314  LUMO = -0.0968068922829798
   mo_energy = [-1.11428504e+00 -9.68068923e-02 -1.28768262e-02  6.27101667e-01
  1.39631175e+01]
alpha-B3u nocc = 1  HOMO = -1.11428504083314  LUMO = -0.0968068922829798
   mo_energy = [-1.11428504e+00 -9.68068923e-02 -1.28768262e-02  6.27101667e-01
  1.39631175e+01]
beta-Ag nocc = 2  HOMO = -1.30839411187611  LUMO = -0.136723777853883
   mo_energy = [-1.62530436e+01 -1.30839411e+00 -1.36723778e-01 -9.61070943e-03
  4.69146424e-03  9.87758382e-03  4.55210410e-01  4.83856264e-01
  9.75575476e-01  2.08069742e+00  2.15301492e+00  1.58111113e+01]
beta-B1g nocc = 0
   mo_energy = [0.00987758 0.48385626 2.15301492]
beta-B2g nocc = 0
   mo_energy = [0.00543621 0.4622006  2.09765758]
beta-B3g nocc = 0
   mo_energy = [0.00543621 0.4622006  2.09765758]
beta-B1u nocc = 0
   mo_energy = [-4.04407846e-01 -9.04401687e-02  2.30248978e-03  7.25309778e-01
  1.40161788e+01]
beta-B2u nocc = 0
   mo_energy = [-0.32888984 -0.08539738  0.01466474  0.77902238 14.07549502]
beta-B3u nocc = 0
   mo_energy = [-0.32888984 -0.08539738  0.01466474  0.77902238 14.07549502]
multiplicity <S^2> = 2.0066327  2S+1 = 3.0044186
E1 = -70.0230802192717  Ecoul = 16.14122953885155
cycle= 6 E= -53.8818506804202  delta_E= -2.67e-07  |g|= 3.84e-05  |ddm|= 0.00163
    CPU time for cycle= 6      0.03 sec, wall time      0.01 sec
diis-norm(errvec)=5.43622e-05
diis-c [-4.79428996e-10 -3.26023996e-05  1.35469441e-03 -1.06097766e-02
  5.45063882e-02 -2.46265709e-01  1.20104701e+00]
alpha HOMO (B2u) = -1.11428057356982  LUMO (B1u) = -0.46193673085719
alpha irrep_nelec = [2, 0, 0, 0, 0, 1, 1]
beta  irrep_nelec = [2, 0, 0, 0, 0, 0, 0]
alpha-Ag nocc = 2  HOMO = -1.62442390107033  LUMO = -0.143700697389562
   mo_energy = [-1.63262044e+01 -1.62442390e+00 -1.43700697e-01 -1.98203811e-02
  2.65998228e-03  5.25002254e-03  4.28338590e-01  4.35239319e-01
  8.99490822e-01  1.98070884e+00  2.01048213e+00  1.57420200e+01]
alpha-B1g nocc = 0
   mo_energy = [0.00525002 0.42833859 1.98070884]
alpha-B2g nocc = 0
   mo_energy = [0.002987   0.43309251 2.00190672]
alpha-B3g nocc = 0
   mo_energy = [0.002987   0.43309251 2.00190672]
alpha-B1u nocc = 0
   mo_energy = [-4.61936731e-01 -9.27777648e-02 -3.24147885e-03  6.94505199e-01
  1.39904987e+01]
alpha-B2u nocc = 1  HOMO = -1.11428057356982  LUMO = -0.0968064396677035
   mo_energy = [-1.11428057e+00 -9.68064397e-02 -1.28758532e-02  6.27108240e-01
  1.39631253e+01]
alpha-B3u nocc = 1  HOMO = -1.11428057356982  LUMO = -0.0968064396677033
   mo_energy = [-1.11428057e+00 -9.68064397e-02 -1.28758532e-02  6.27108240e-01
  1.39631253e+01]
beta-Ag nocc = 2  HOMO = -1.30838180100015  LUMO = -0.136723180030827
   mo_energy = [-1.62530373e+01 -1.30838180e+00 -1.36723180e-01 -9.60988639e-03
  4.69162531e-03  9.87775671e-03  4.55211353e-01  4.83856680e-01
  9.75581869e-01  2.08070310e+00  2.15301917e+00  1.58111192e+01]
beta-B1g nocc = 0
   mo_energy = [0.00987776 0.48385668 2.15301917]
beta-B2g nocc = 0
   mo_energy = [0.00543624 0.4622015  2.09766305]
beta-B3g nocc = 0
   mo_energy = [0.00543624 0.4622015  2.09766305]
beta-B1u nocc = 0
   mo_energy = [-4.04397148e-01 -9.04398988e-02  2.30327890e-03  7.25313973e-01
  1.40161835e+01]
beta-B2u nocc = 0
   mo_energy = [-0.32888911 -0.08539719  0.01466541  0.77902585 14.07549802]
beta-B3u nocc = 0
   mo_energy = [-0.32888911 -0.08539719  0.01466541  0.77902585 14.07549802]
multiplicity <S^2> = 2.0066333  2S+1 = 3.004419
E1 = -70.02309049580883  Ecoul = 16.141239814500704
cycle= 7 E= -53.8818506813081  delta_E= -8.88e-10  |g|= 2.75e-06  |ddm|= 9.7e-05
    CPU time for cycle= 7      0.03 sec, wall time      0.01 sec
diis-norm(errvec)=3.89286e-06
diis-c [-1.60802048e-12  2.30543934e-06 -1.63137975e-04  1.28842511e-03
 -6.55944307e-03  3.06683820e-02 -1.93399117e-01  1.16816259e+00]
alpha HOMO (B2u) = -1.11427960427108  LUMO (B1u) = -0.46193713011027
alpha irrep_nelec = [2, 0, 0, 0, 0, 1, 1]
beta  irrep_nelec = [2, 0, 0, 0, 0, 0, 0]
alpha-Ag nocc = 2  HOMO = -1.62442434580213  LUMO = -0.14370069947841
   mo_energy = [-1.63262056e+01 -1.62442435e+00 -1.43700699e-01 -1.98204381e-02
  2.66001105e-03  5.25016727e-03  4.28338742e-01  4.35239239e-01
  8.99490467e-01  1.98070905e+00  2.01048189e+00  1.57420191e+01]
alpha-B1g nocc = 0
   mo_energy = [0.00525017 0.42833874 1.98070905]
alpha-B2g nocc = 0
   mo_energy = [0.00298705 0.4330925  2.00190659]
alpha-B3g nocc = 0
   mo_energy = [0.00298705 0.4330925  2.00190659]
alpha-B1u nocc = 0
   mo_energy = [-4.61937130e-01 -9.27778000e-02 -3.24154367e-03  6.94504884e-01
  1.39904980e+01]
alpha-B2u nocc = 1  HOMO = -1.11427960427108  LUMO = -0.0968064794352866
   mo_energy = [-1.11427960e+00 -9.68064794e-02 -1.28759060e-02  6.27108158e-01
  1.39631247e+01]
alpha-B3u nocc = 1  HOMO = -1.11427960427109  LUMO = -0.0968064794352865
   mo_energy = [-1.11427960e+00 -9.68064794e-02 -1.28759060e-02  6.27108158e-01
  1.39631247e+01]
beta-Ag nocc = 2  HOMO = -1.30838198803091  LUMO = -0.136723193470552
   mo_energy = [-1.62530378e+01 -1.30838199e+00 -1.36723193e-01 -9.60990358e-03
  4.69164539e-03  9.87779650e-03  4.55211429e-01  4.83856793e-01
  9.75582049e-01  2.08070306e+00  2.15301914e+00  1.58111188e+01]
beta-B1g nocc = 0
   mo_energy = [0.0098778  0.48385679 2.15301914]
beta-B2g nocc = 0
   mo_energy = [0.00543625 0.46220159 2.09766301]
beta-B3g nocc = 0
   mo_energy = [0.00543625 0.46220159 2.09766301]
beta-B1u nocc = 0
   mo_energy = [-4.04396751e-01 -9.04399181e-02  2.30324558e-03  7.25313875e-01
  1.40161828e+01]
beta-B2u nocc = 0
   mo_energy = [-0.3288894  -0.0853972   0.01466538  0.77902577 14.0754973 ]
beta-B3u nocc = 0
   mo_energy = [-0.3288894  -0.0853972   0.01466538  0.77902577 14.0754973 ]
multiplicity <S^2> = 2.0066333  2S+1 = 3.0044189
E1 = -70.0230926534246  Ecoul = 16.141241972110492
cycle= 8 E= -53.8818506813141  delta_E= -5.98e-12  |g|= 1.42e-07  |ddm|= 2.54e-06
    CPU time for cycle= 8      0.03 sec, wall time      0.01 sec
diis-norm(errvec)=2.01308e-07
diis-c [-1.54682434e-14 -1.52337896e-07  1.77735936e-05 -1.41095243e-04
  7.16631321e-04 -3.34446449e-03  2.22249942e-02 -1.51425688e-01
  1.13195200e+00]
alpha HOMO (B3u) = -1.11427962745033  LUMO (B1u) = -0.461937133381903
alpha irrep_nelec = [2, 0, 0, 0, 0, 1, 1]
beta  irrep_nelec = [2, 0, 0, 0, 0, 0, 0]
alpha-Ag nocc = 2  HOMO = -1.62442430179759  LUMO = -0.143700693762335
   mo_energy = [-1.63262055e+01 -1.62442430e+00 -1.43700694e-01 -1.98204306e-02
  2.66001057e-03  5.25017015e-03  4.28338755e-01  4.35239235e-01
  8.99490504e-01  1.98070908e+00  2.01048189e+00  1.57420191e+01]
alpha-B1g nocc = 0
   mo_energy = [0.00525017 0.42833875 1.98070908]
alpha-B2g nocc = 0
   mo_energy = [0.00298705 0.4330925  2.0019066 ]
alpha-B3g nocc = 0
   mo_energy = [0.00298705 0.4330925  2.0019066 ]
alpha-B1u nocc = 0
   mo_energy = [-4.61937133e-01 -9.27778005e-02 -3.24154342e-03  6.94504896e-01
  1.39904980e+01]
alpha-B2u nocc = 1  HOMO = -1.11427962745033  LUMO = -0.0968064771336496
   mo_energy = [-1.11427963e+00 -9.68064771e-02 -1.28758995e-02  6.27108192e-01
  1.39631247e+01]
alpha-B3u nocc = 1  HOMO = -1.11427962745033  LUMO = -0.0968064771336498
   mo_energy = [-1.11427963e+00 -9.68064771e-02 -1.28758995e-02  6.27108192e-01
  1.39631247e+01]
beta-Ag nocc = 2  HOMO = -1.30838195963129  LUMO = -0.136723191877243
   mo_energy = [-1.62530377e+01 -1.30838196e+00 -1.36723192e-01 -9.60990257e-03
  4.69164478e-03  9.87779554e-03  4.55211435e-01  4.83856795e-01
  9.75582043e-01  2.08070308e+00  2.15301916e+00  1.58111189e+01]
beta-B1g nocc = 0
   mo_energy = [0.0098778  0.4838568  2.15301916]
beta-B2g nocc = 0
   mo_energy = [0.00543625 0.4622016  2.09766303]
beta-B3g nocc = 0
   mo_energy = [0.00543625 0.4622016  2.09766303]
beta-B1u nocc = 0
   mo_energy = [-4.04396707e-01 -9.04399177e-02  2.30324705e-03  7.25313885e-01
  1.40161829e+01]
beta-B2u nocc = 0
   mo_energy = [-0.32888939 -0.0853972   0.01466539  0.77902578 14.07549733]
beta-B3u nocc = 0
   mo_energy = [-0.32888939 -0.0853972   0.01466539  0.77902578 14.07549733]
multiplicity <S^2> = 2.0066333  2S+1 = 3.0044189
E1 = -70.02309263039858  Ecoul = 16.141241949084453
cycle= 9 E= -53.8818506813141  delta_E= -2.13e-14  |g|= 2.09e-08  |ddm|= 3.26e-07
    CPU time for cycle= 9      0.03 sec, wall time      0.01 sec
diis-norm(errvec)=2.96111e-08
Linear dependence found in DIIS error vectors.
diis-c [-5.27227617e-15  5.56451807e-01  6.13365042e-06 -4.88006973e-05
  2.44797085e-04 -1.14402345e-03  8.03082671e-03 -6.02658787e-02
  4.96725138e-01]
alpha HOMO (B3u) = -1.11427962823803  LUMO (B1u) = -0.461937137445749
alpha irrep_nelec = [2, 0, 0, 0, 0, 1, 1]
beta  irrep_nelec = [2, 0, 0, 0, 0, 0, 0]
alpha-Ag nocc = 2  HOMO = -1.62442430161848  LUMO = -0.143700693778471
   mo_energy = [-1.63262055e+01 -1.62442430e+00 -1.43700694e-01 -1.98204308e-02
  2.66001056e-03  5.25017030e-03  4.28338755e-01  4.35239234e-01
  8.99490504e-01  1.98070907e+00  2.01048189e+00  1.57420191e+01]
alpha-B1g nocc = 0
   mo_energy = [0.00525017 0.42833875 1.98070907]
alpha-B2g nocc = 0
   mo_energy = [0.00298705 0.4330925  2.0019066 ]
alpha-B3g nocc = 0
   mo_energy = [0.00298705 0.4330925  2.0019066 ]
alpha-B1u nocc = 0
   mo_energy = [-4.61937137e-01 -9.27778006e-02 -3.24154364e-03  6.94504894e-01
  1.39904980e+01]
alpha-B2u nocc = 1  HOMO = -1.11427962823803  LUMO = -0.0968064772396811
   mo_energy = [-1.11427963e+00 -9.68064772e-02 -1.28758999e-02  6.27108189e-01
  1.39631247e+01]
alpha-B3u nocc = 1  HOMO = -1.11427962823803  LUMO = -0.0968064772396812
   mo_energy = [-1.11427963e+00 -9.68064772e-02 -1.28758999e-02  6.27108189e-01
  1.39631247e+01]
beta-Ag nocc = 2  HOMO = -1.30838196098902  LUMO = -0.136723191954492
   mo_energy = [-1.62530377e+01 -1.30838196e+00 -1.36723192e-01 -9.60990268e-03
  4.69164480e-03  9.87779554e-03  4.55211435e-01  4.83856795e-01
  9.75582043e-01  2.08070308e+00  2.15301916e+00  1.58111189e+01]
beta-B1g nocc = 0
   mo_energy = [0.0098778  0.48385679 2.15301916]
beta-B2g nocc = 0
   mo_energy = [0.00543625 0.4622016  2.09766303]
beta-B3g nocc = 0
   mo_energy = [0.00543625 0.4622016  2.09766303]
beta-B1u nocc = 0
   mo_energy = [-4.04396707e-01 -9.04399177e-02  2.30324689e-03  7.25313884e-01
  1.40161829e+01]
beta-B2u nocc = 0
   mo_energy = [-0.3288894  -0.0853972   0.01466539  0.77902578 14.07549732]
beta-B3u nocc = 0
   mo_energy = [-0.3288894  -0.0853972   0.01466539  0.77902578 14.07549732]
multiplicity <S^2> = 2.0066333  2S+1 = 3.0044189
E1 = -70.02309263488631  Ecoul = 16.141241953572184
cycle= 10 E= -53.8818506813141  delta_E=    0  |g|= 1.29e-08  |ddm|= 1.16e-08
    CPU time for cycle= 10      0.03 sec, wall time      0.01 sec
diis-norm(errvec)=1.82404e-08
Linear dependence found in DIIS error vectors.
diis-c [-3.05836600e-16  5.35701973e-01  5.72057124e-01 -1.29256123e-07
 -1.04839821e-07  1.39940107e-06 -1.68320729e-04  3.17147574e-03
 -1.10763417e-01]
alpha HOMO (B3u) = -1.11427962604476  LUMO (B1u) = -0.461937134274043
alpha irrep_nelec = [2, 0, 0, 0, 0, 1, 1]
beta  irrep_nelec = [2, 0, 0, 0, 0, 0, 0]
alpha-Ag nocc = 2  HOMO = -1.62442429391604  LUMO = -0.143700693004259
   mo_energy = [-1.63262055e+01 -1.62442429e+00 -1.43700693e-01 -1.98204300e-02
  2.66001091e-03  5.25017086e-03  4.28338757e-01  4.35239235e-01
  8.99490509e-01  1.98070908e+00  2.01048190e+00  1.57420191e+01]
alpha-B1g nocc = 0
   mo_energy = [0.00525017 0.42833876 1.98070908]
alpha-B2g nocc = 0
   mo_energy = [0.00298705 0.4330925  2.0019066 ]
alpha-B3g nocc = 0
   mo_energy = [0.00298705 0.4330925  2.0019066 ]
alpha-B1u nocc = 0
   mo_energy = [-4.61937134e-01 -9.27778003e-02 -3.24154303e-03  6.94504898e-01
  1.39904980e+01]
alpha-B2u nocc = 1  HOMO = -1.11427962604476  LUMO = -0.0968064768089495
   mo_energy = [-1.11427963e+00 -9.68064768e-02 -1.28758994e-02  6.27108191e-01
  1.39631247e+01]
alpha-B3u nocc = 1  HOMO = -1.11427962604476  LUMO = -0.0968064768089492
   mo_energy = [-1.11427963e+00 -9.68064768e-02 -1.28758994e-02  6.27108191e-01
  1.39631247e+01]
beta-Ag nocc = 2  HOMO = -1.3083819538376  LUMO = -0.136723191686798
   mo_energy = [-1.62530377e+01 -1.30838195e+00 -1.36723192e-01 -9.60990222e-03
  4.69164500e-03  9.87779559e-03  4.55211437e-01  4.83856796e-01
  9.75582048e-01  2.08070309e+00  2.15301917e+00  1.58111189e+01]
beta-B1g nocc = 0
   mo_energy = [0.0098778  0.4838568  2.15301917]
beta-B2g nocc = 0
   mo_energy = [0.00543625 0.4622016  2.09766304]
beta-B3g nocc = 0
   mo_energy = [0.00543625 0.4622016  2.09766304]
beta-B1u nocc = 0
   mo_energy = [-4.04396700e-01 -9.04399174e-02  2.30324772e-03  7.25313889e-01
  1.40161829e+01]
beta-B2u nocc = 0
   mo_energy = [-0.32888939 -0.0853972   0.01466539  0.77902578 14.07549734]
beta-B3u nocc = 0
   mo_energy = [-0.32888939 -0.0853972   0.01466539  0.77902578 14.07549734]
multiplicity <S^2> = 2.0066333  2S+1 = 3.0044189
E1 = -70.023092635443  Ecoul = 16.14124195412888
cycle= 11 E= -53.8818506813141  delta_E=    0  |g|= 1.91e-09  |ddm|= 2.15e-08
    CPU time for cycle= 11      0.03 sec, wall time      0.01 sec
diis-norm(errvec)=2.70679e-09
Linear dependence found in DIIS error vectors.
diis-c [-3.10876950e-17  3.32145133e-01  3.55095232e-01  3.91008547e-01
 -6.99300285e-07  4.73834186e-06 -1.58669021e-04  2.63425222e-03
 -8.07285341e-02]
alpha HOMO (B3u) = -1.11427962590341  LUMO (B1u) = -0.4619371342742
alpha irrep_nelec = [2, 0, 0, 0, 0, 1, 1]
beta  irrep_nelec = [2, 0, 0, 0, 0, 0, 0]
alpha-Ag nocc = 2  HOMO = -1.62442429356134  LUMO = -0.143700692990578
   mo_energy = [-1.63262055e+01 -1.62442429e+00 -1.43700693e-01 -1.98204300e-02
  2.66001091e-03  5.25017086e-03  4.28338757e-01  4.35239235e-01
  8.99490509e-01  1.98070908e+00  2.01048190e+00  1.57420191e+01]
alpha-B1g nocc = 0
   mo_energy = [0.00525017 0.42833876 1.98070908]
alpha-B2g nocc = 0
   mo_energy = [0.00298705 0.4330925  2.0019066 ]
alpha-B3g nocc = 0
   mo_energy = [0.00298705 0.4330925  2.0019066 ]
alpha-B1u nocc = 0
   mo_energy = [-4.61937134e-01 -9.27778003e-02 -3.24154302e-03  6.94504898e-01
  1.39904980e+01]
alpha-B2u nocc = 1  HOMO = -1.11427962590341  LUMO = -0.0968064768126855
   mo_energy = [-1.11427963e+00 -9.68064768e-02 -1.28758994e-02  6.27108191e-01
  1.39631247e+01]
alpha-B3u nocc = 1  HOMO = -1.11427962590341  LUMO = -0.0968064768126853
   mo_energy = [-1.11427963e+00 -9.68064768e-02 -1.28758994e-02  6.27108191e-01
  1.39631247e+01]
beta-Ag nocc = 2  HOMO = -1.30838195359288  LUMO = -0.136723191682303
   mo_energy = [-1.62530377e+01 -1.30838195e+00 -1.36723192e-01 -9.60990222e-03
  4.69164500e-03  9.87779558e-03  4.55211437e-01  4.83856796e-01
  9.75582048e-01  2.08070309e+00  2.15301917e+00  1.58111189e+01]
beta-B1g nocc = 0
   mo_energy = [0.0098778  0.4838568  2.15301917]
beta-B2g nocc = 0
   mo_energy = [0.00543625 0.4622016  2.09766304]
beta-B3g nocc = 0
   mo_energy = [0.00543625 0.4622016  2.09766304]
beta-B1u nocc = 0
   mo_energy = [-4.04396700e-01 -9.04399174e-02  2.30324775e-03  7.25313889e-01
  1.40161829e+01]
beta-B2u nocc = 0
   mo_energy = [-0.32888939 -0.0853972   0.01466539  0.77902578 14.07549734]
beta-B3u nocc = 0
   mo_energy = [-0.32888939 -0.0853972   0.01466539  0.77902578 14.07549734]
multiplicity <S^2> = 2.0066333  2S+1 = 3.0044189
E1 = -70.0230926356156  Ecoul = 16.1412419543015
cycle= 12 E= -53.8818506813141  delta_E= 2.84e-14  |g|= 1.13e-09  |ddm|= 9.06e-10
    CPU time for cycle= 12      0.03 sec, wall time      0.01 sec
diis-norm(errvec)=1.60422e-09
Linear dependence found in DIIS error vectors.
diis-c [-6.86818693e-17  2.39575983e-01  2.55368902e-01  2.80408881e-01
  2.81786356e-01 -6.22409630e-07 -8.49015982e-05  1.73247391e-03
 -5.87870716e-02]
alpha HOMO (B2u) = -1.11427962577484  LUMO (B1u) = -0.461937134456265
alpha irrep_nelec = [2, 0, 0, 0, 0, 1, 1]
beta  irrep_nelec = [2, 0, 0, 0, 0, 0, 0]
alpha-Ag nocc = 2  HOMO = -1.624424293552  LUMO = -0.143700693006803
   mo_energy = [-1.63262055e+01 -1.62442429e+00 -1.43700693e-01 -1.98204300e-02
  2.66001089e-03  5.25017084e-03  4.28338757e-01  4.35239235e-01
  8.99490509e-01  1.98070908e+00  2.01048190e+00  1.57420191e+01]
alpha-B1g nocc = 0
   mo_energy = [0.00525017 0.42833876 1.98070908]
alpha-B2g nocc = 0
   mo_energy = [0.00298705 0.4330925  2.0019066 ]
alpha-B3g nocc = 0
   mo_energy = [0.00298705 0.4330925  2.0019066 ]
alpha-B1u nocc = 0
   mo_energy = [-4.61937134e-01 -9.27778003e-02 -3.24154304e-03  6.94504898e-01
  1.39904980e+01]
alpha-B2u nocc = 1  HOMO = -1.11427962577484  LUMO = -0.0968064768120016
   mo_energy = [-1.11427963e+00 -9.68064768e-02 -1.28758994e-02  6.27108191e-01
  1.39631247e+01]
alpha-B3u nocc = 1  HOMO = -1.11427962577484  LUMO = -0.0968064768120015
   mo_energy = [-1.11427963e+00 -9.68064768e-02 -1.28758994e-02  6.27108191e-01
  1.39631247e+01]
beta-Ag nocc = 2  HOMO = -1.30838195395866  LUMO = -0.136723191699599
   mo_energy = [-1.62530377e+01 -1.30838195e+00 -1.36723192e-01 -9.60990225e-03
  4.69164500e-03  9.87779559e-03  4.55211437e-01  4.83856796e-01
  9.75582048e-01  2.08070309e+00  2.15301917e+00  1.58111189e+01]
beta-B1g nocc = 0
   mo_energy = [0.0098778  0.4838568  2.15301917]
beta-B2g nocc = 0
   mo_energy = [0.00543625 0.4622016  2.09766304]
beta-B3g nocc = 0
   mo_energy = [0.00543625 0.4622016  2.09766304]
beta-B1u nocc = 0
   mo_energy = [-4.04396700e-01 -9.04399174e-02  2.30324773e-03  7.25313889e-01
  1.40161829e+01]
beta-B2u nocc = 0
   mo_energy = [-0.32888939 -0.0853972   0.01466539  0.77902578 14.07549734]
beta-B3u nocc = 0
   mo_energy = [-0.32888939 -0.0853972   0.01466539  0.77902578 14.07549734]
multiplicity <S^2> = 2.0066333  2S+1 = 3.0044189
E1 = -70.02309263530174  Ecoul = 16.141241953987603
cycle= 13 E= -53.8818506813141  delta_E= -3.55e-14  |g|= 1.09e-09  |ddm|= 1.81e-09
    CPU time for cycle= 13      0.03 sec, wall time      0.01 sec
diis-norm(errvec)=1.54672e-09
Linear dependence found in DIIS error vectors.
diis-c [-8.17411134e-16  1.82820046e-01  1.97544185e-01  2.19641766e-01
  2.20952732e-01  2.21230683e-01 -6.98854019e-05  1.31186175e-03
 -4.34313877e-02]
alpha HOMO (B3u) = -1.11427962567196  LUMO (B1u) = -0.461937134325078
alpha irrep_nelec = [2, 0, 0, 0, 0, 1, 1]
beta  irrep_nelec = [2, 0, 0, 0, 0, 0, 0]
alpha-Ag nocc = 2  HOMO = -1.6244242934082  LUMO = -0.143700692995272
   mo_energy = [-1.63262055e+01 -1.62442429e+00 -1.43700693e-01 -1.98204300e-02
  2.66001090e-03  5.25017085e-03  4.28338757e-01  4.35239235e-01
  8.99490509e-01  1.98070908e+00  2.01048190e+00  1.57420191e+01]
alpha-B1g nocc = 0
   mo_energy = [0.00525017 0.42833876 1.98070908]
alpha-B2g nocc = 0
   mo_energy = [0.00298705 0.4330925  2.0019066 ]
alpha-B3g nocc = 0
   mo_energy = [0.00298705 0.4330925  2.0019066 ]
alpha-B1u nocc = 0
   mo_energy = [-4.61937134e-01 -9.27778003e-02 -3.24154302e-03  6.94504898e-01
  1.39904980e+01]
alpha-B2u nocc = 1  HOMO = -1.11427962567196  LUMO = -0.0968064768105143
   mo_energy = [-1.11427963e+00 -9.68064768e-02 -1.28758994e-02  6.27108191e-01
  1.39631247e+01]
alpha-B3u nocc = 1  HOMO = -1.11427962567196  LUMO = -0.0968064768105142
   mo_energy = [-1.11427963e+00 -9.68064768e-02 -1.28758994e-02  6.27108191e-01
  1.39631247e+01]
beta-Ag nocc = 2  HOMO = -1.30838195380905  LUMO = -0.136723191694383
   mo_energy = [-1.62530377e+01 -1.30838195e+00 -1.36723192e-01 -9.60990224e-03
  4.69164500e-03  9.87779559e-03  4.55211437e-01  4.83856796e-01
  9.75582048e-01  2.08070309e+00  2.15301917e+00  1.58111189e+01]
beta-B1g nocc = 0
   mo_energy = [0.0098778  0.4838568  2.15301917]
beta-B2g nocc = 0
   mo_energy = [0.00543625 0.4622016  2.09766304]
beta-B3g nocc = 0
   mo_energy = [0.00543625 0.4622016  2.09766304]
beta-B1u nocc = 0
   mo_energy = [-4.04396699e-01 -9.04399174e-02  2.30324775e-03  7.25313889e-01
  1.40161829e+01]
beta-B2u nocc = 0
   mo_energy = [-0.32888939 -0.0853972   0.01466539  0.77902578 14.07549734]
beta-B3u nocc = 0
   mo_energy = [-0.32888939 -0.0853972   0.01466539  0.77902578 14.07549734]
multiplicity <S^2> = 2.0066333  2S+1 = 3.0044189
E1 = -70.02309263539749  Ecoul = 16.141241954083373
cycle= 14 E= -53.8818506813141  delta_E= 1.42e-14  |g|= 9.52e-10  |ddm|= 2.56e-10
    CPU time for cycle= 14      0.03 sec, wall time      0.01 sec
diis-norm(errvec)=1.34644e-09
Linear dependence found in DIIS error vectors.
diis-c [-1.11835224e-16  1.51665216e-01  1.62559778e-01  1.78772265e-01
  1.79701122e-01  1.79913724e-01  1.79941029e-01  4.83669143e-04
 -3.30368037e-02]
alpha HOMO (B2u) = -1.11427962556032  LUMO (B1u) = -0.461937134133716
alpha irrep_nelec = [2, 0, 0, 0, 0, 1, 1]
beta  irrep_nelec = [2, 0, 0, 0, 0, 0, 0]
alpha-Ag nocc = 2  HOMO = -1.62442429311615  LUMO = -0.14370069297492
   mo_energy = [-1.63262055e+01 -1.62442429e+00 -1.43700693e-01 -1.98204300e-02
  2.66001090e-03  5.25017086e-03  4.28338757e-01  4.35239235e-01
  8.99490509e-01  1.98070908e+00  2.01048190e+00  1.57420191e+01]
alpha-B1g nocc = 0
   mo_energy = [0.00525017 0.42833876 1.98070908]
alpha-B2g nocc = 0
   mo_energy = [0.00298705 0.4330925  2.0019066 ]
alpha-B3g nocc = 0
   mo_energy = [0.00298705 0.4330925  2.0019066 ]
alpha-B1u nocc = 0
   mo_energy = [-4.61937134e-01 -9.27778003e-02 -3.24154300e-03  6.94504898e-01
  1.39904980e+01]
alpha-B2u nocc = 1  HOMO = -1.11427962556032  LUMO = -0.0968064768076301
   mo_energy = [-1.11427963e+00 -9.68064768e-02 -1.28758994e-02  6.27108191e-01
  1.39631247e+01]
alpha-B3u nocc = 1  HOMO = -1.11427962556033  LUMO = -0.0968064768076301
   mo_energy = [-1.11427963e+00 -9.68064768e-02 -1.28758994e-02  6.27108191e-01
  1.39631247e+01]
beta-Ag nocc = 2  HOMO = -1.30838195379692  LUMO = -0.136723191695178
   mo_energy = [-1.62530377e+01 -1.30838195e+00 -1.36723192e-01 -9.60990224e-03
  4.69164501e-03  9.87779559e-03  4.55211437e-01  4.83856796e-01
  9.75582048e-01  2.08070309e+00  2.15301917e+00  1.58111189e+01]
beta-B1g nocc = 0
   mo_energy = [0.0098778  0.4838568  2.15301917]
beta-B2g nocc = 0
   mo_energy = [0.00543625 0.4622016  2.09766304]
beta-B3g nocc = 0
   mo_energy = [0.00543625 0.4622016  2.09766304]
beta-B1u nocc = 0
   mo_energy = [-4.04396699e-01 -9.04399174e-02  2.30324776e-03  7.25313889e-01
  1.40161829e+01]
beta-B2u nocc = 0
   mo_energy = [-0.32888939 -0.0853972   0.01466539  0.77902578 14.07549734]
beta-B3u nocc = 0
   mo_energy = [-0.32888939 -0.0853972   0.01466539  0.77902578 14.07549734]
multiplicity <S^2> = 2.0066333  2S+1 = 3.0044189
E1 = -70.02309263538012  Ecoul = 16.14124195406601
cycle= 15 E= -53.8818506813141  delta_E= 7.11e-15  |g|= 1.02e-09  |ddm|= 1.1e-09
    CPU time for cycle= 15      0.03 sec, wall time      0.01 sec
diis-norm(errvec)=1.44416e-09
Linear dependence found in DIIS error vectors.
diis-c [ 1.57826294e-16  1.29800550e-01  1.38272227e-01  1.50118481e-01
  1.50808982e-01  1.50975493e-01  1.50996781e-01  1.51072741e-01
 -2.20452552e-02]
alpha HOMO (B3u) = -1.1142796254048  LUMO (B1u) = -0.461937133998523
alpha irrep_nelec = [2, 0, 0, 0, 0, 1, 1]
beta  irrep_nelec = [2, 0, 0, 0, 0, 0, 0]
alpha-Ag nocc = 2  HOMO = -1.62442429309032  LUMO = -0.143700692967098
   mo_energy = [-1.63262055e+01 -1.62442429e+00 -1.43700693e-01 -1.98204300e-02
  2.66001091e-03  5.25017088e-03  4.28338758e-01  4.35239235e-01
  8.99490509e-01  1.98070908e+00  2.01048190e+00  1.57420191e+01]
alpha-B1g nocc = 0
   mo_energy = [0.00525017 0.42833876 1.98070908]
alpha-B2g nocc = 0
   mo_energy = [0.00298705 0.4330925  2.0019066 ]
alpha-B3g nocc = 0
   mo_energy = [0.00298705 0.4330925  2.0019066 ]
alpha-B1u nocc = 0
   mo_energy = [-4.61937134e-01 -9.27778003e-02 -3.24154299e-03  6.94504898e-01
  1.39904980e+01]
alpha-B2u nocc = 1  HOMO = -1.1142796254048  LUMO = -0.0968064768032632
   mo_energy = [-1.11427963e+00 -9.68064768e-02 -1.28758994e-02  6.27108191e-01
  1.39631247e+01]
alpha-B3u nocc = 1  HOMO = -1.1142796254048  LUMO = -0.0968064768032632
   mo_energy = [-1.11427963e+00 -9.68064768e-02 -1.28758994e-02  6.27108191e-01
  1.39631247e+01]
beta-Ag nocc = 2  HOMO = -1.30838195359005  LUMO = -0.136723191687392
   mo_energy = [-1.62530377e+01 -1.30838195e+00 -1.36723192e-01 -9.60990222e-03
  4.69164501e-03  9.87779560e-03  4.55211437e-01  4.83856796e-01
  9.75582048e-01  2.08070309e+00  2.15301917e+00  1.58111189e+01]
beta-B1g nocc = 0
   mo_energy = [0.0098778  0.4838568  2.15301917]
beta-B2g nocc = 0
   mo_energy = [0.00543625 0.4622016  2.09766304]
beta-B3g nocc = 0
   mo_energy = [0.00543625 0.4622016  2.09766304]
beta-B1u nocc = 0
   mo_energy = [-4.04396699e-01 -9.04399174e-02  2.30324778e-03  7.25313889e-01
  1.40161829e+01]
beta-B2u nocc = 0
   mo_energy = [-0.32888939 -0.0853972   0.01466539  0.77902578 14.07549734]
beta-B3u nocc = 0
   mo_energy = [-0.32888939 -0.0853972   0.01466539  0.77902578 14.07549734]
multiplicity <S^2> = 2.0066333  2S+1 = 3.0044189
E1 = -70.02309263551862  Ecoul = 16.14124195420451
cycle= 16 E= -53.8818506813141  delta_E=    0  |g|= 9.55e-10  |ddm|= 7.7e-10
    CPU time for cycle= 16      0.03 sec, wall time      0.01 sec
diis-norm(errvec)=1.35042e-09
Linear dependence found in DIIS error vectors.
diis-c [-3.83815955e-16  1.25000000e-01  1.25000000e-01  1.25000000e-01
  1.25000000e-01  1.25000000e-01  1.25000000e-01  1.25000000e-01
  1.25000000e-01]
alpha HOMO (B2u) = -1.1142796253485  LUMO (B1u) = -0.461937133804521
alpha irrep_nelec = [2, 0, 0, 0, 0, 1, 1]
beta  irrep_nelec = [2, 0, 0, 0, 0, 0, 0]
alpha-Ag nocc = 2  HOMO = -1.6244242932439  LUMO = -0.143700692984187
   mo_energy = [-1.63262055e+01 -1.62442429e+00 -1.43700693e-01 -1.98204300e-02
  2.66001092e-03  5.25017086e-03  4.28338758e-01  4.35239236e-01
  8.99490509e-01  1.98070908e+00  2.01048190e+00  1.57420191e+01]
alpha-B1g nocc = 0
   mo_energy = [0.00525017 0.42833876 1.98070908]
alpha-B2g nocc = 0
   mo_energy = [0.00298705 0.4330925  2.0019066 ]
alpha-B3g nocc = 0
   mo_energy = [0.00298705 0.4330925  2.0019066 ]
alpha-B1u nocc = 0
   mo_energy = [-4.61937134e-01 -9.27778002e-02 -3.24154298e-03  6.94504898e-01
  1.39904980e+01]
alpha-B2u nocc = 1  HOMO = -1.1142796253485  LUMO = -0.0968064768060099
   mo_energy = [-1.11427963e+00 -9.68064768e-02 -1.28758994e-02  6.27108191e-01
  1.39631247e+01]
alpha-B3u nocc = 1  HOMO = -1.1142796253485  LUMO = -0.0968064768060099
   mo_energy = [-1.11427963e+00 -9.68064768e-02 -1.28758994e-02  6.27108191e-01
  1.39631247e+01]
beta-Ag nocc = 2  HOMO = -1.30838195352655  LUMO = -0.136723191684984
   mo_energy = [-1.62530377e+01 -1.30838195e+00 -1.36723192e-01 -9.60990222e-03
  4.69164501e-03  9.87779560e-03  4.55211437e-01  4.83856796e-01
  9.75582048e-01  2.08070309e+00  2.15301917e+00  1.58111189e+01]
beta-B1g nocc = 0
   mo_energy = [0.0098778  0.4838568  2.15301917]
beta-B2g nocc = 0
   mo_energy = [0.00543625 0.4622016  2.09766304]
beta-B3g nocc = 0
   mo_energy = [0.00543625 0.4622016  2.09766304]
beta-B1u nocc = 0
   mo_energy = [-4.04396699e-01 -9.04399174e-02  2.30324779e-03  7.25313889e-01
  1.40161829e+01]
beta-B2u nocc = 0
   mo_energy = [-0.32888939 -0.0853972   0.01466539  0.77902578 14.07549734]
beta-B3u nocc = 0
   mo_energy = [-0.32888939 -0.0853972   0.01466539  0.77902578 14.07549734]
multiplicity <S^2> = 2.0066333  2S+1 = 3.0044189
E1 = -70.02309263541622  Ecoul = 16.141241954102078
cycle= 17 E= -53.8818506813141  delta_E= -2.84e-14  |g|= 1.35e-09  |ddm|= 1.63e-09
    CPU time for cycle= 17      0.03 sec, wall time      0.01 sec
diis-norm(errvec)=1.91391e-09
Linear dependence found in DIIS error vectors.
diis-c [-2.89052492e-16  1.25000000e-01  1.25000000e-01  1.25000000e-01
  1.25000000e-01  1.25000000e-01  1.25000000e-01  1.25000000e-01
  1.25000000e-01]
alpha HOMO (B2u) = -1.11427962541159  LUMO (B1u) = -0.461937133898261
alpha irrep_nelec = [2, 0, 0, 0, 0, 1, 1]
beta  irrep_nelec = [2, 0, 0, 0, 0, 0, 0]
alpha-Ag nocc = 2  HOMO = -1.62442429306205  LUMO = -0.143700692968904
   mo_energy = [-1.63262055e+01 -1.62442429e+00 -1.43700693e-01 -1.98204300e-02
  2.66001092e-03  5.25017087e-03  4.28338758e-01  4.35239236e-01
  8.99490509e-01  1.98070908e+00  2.01048190e+00  1.57420191e+01]
alpha-B1g nocc = 0
   mo_energy = [0.00525017 0.42833876 1.98070908]
alpha-B2g nocc = 0
   mo_energy = [0.00298705 0.4330925  2.0019066 ]
alpha-B3g nocc = 0
   mo_energy = [0.00298705 0.4330925  2.0019066 ]
alpha-B1u nocc = 0
   mo_energy = [-4.61937134e-01 -9.27778002e-02 -3.24154298e-03  6.94504898e-01
  1.39904980e+01]
alpha-B2u nocc = 1  HOMO = -1.11427962541159  LUMO = -0.0968064768082677
   mo_energy = [-1.11427963e+00 -9.68064768e-02 -1.28758994e-02  6.27108191e-01
  1.39631247e+01]
alpha-B3u nocc = 1  HOMO = -1.11427962541159  LUMO = -0.0968064768082677
   mo_energy = [-1.11427963e+00 -9.68064768e-02 -1.28758994e-02  6.27108191e-01
  1.39631247e+01]
beta-Ag nocc = 2  HOMO = -1.30838195330948  LUMO = -0.136723191676407
   mo_energy = [-1.62530377e+01 -1.30838195e+00 -1.36723192e-01 -9.60990220e-03
  4.69164501e-03  9.87779559e-03  4.55211437e-01  4.83856796e-01
  9.75582048e-01  2.08070309e+00  2.15301917e+00  1.58111189e+01]
beta-B1g nocc = 0
   mo_energy = [0.0098778  0.4838568  2.15301917]
beta-B2g nocc = 0
   mo_energy = [0.00543625 0.4622016  2.09766304]
beta-B3g nocc = 0
   mo_energy = [0.00543625 0.4622016  2.09766304]
beta-B1u nocc = 0
   mo_energy = [-4.04396699e-01 -9.04399174e-02  2.30324780e-03  7.25313889e-01
  1.40161829e+01]
beta-B2u nocc = 0
   mo_energy = [-0.32888939 -0.0853972   0.01466539  0.77902578 14.07549734]
beta-B3u nocc = 0
   mo_energy = [-0.32888939 -0.0853972   0.01466539  0.77902578 14.07549734]
multiplicity <S^2> = 2.0066333  2S+1 = 3.0044189
E1 = -70.02309263567244  Ecoul = 16.141241954358335
cycle= 18 E= -53.8818506813141  delta_E= 3.55e-14  |g|= 6.88e-10  |ddm|= 9.75e-10
    CPU time for cycle= 18      0.03 sec, wall time      0.01 sec
diis-norm(errvec)=9.72913e-10
Linear dependence found in DIIS error vectors.
diis-c [-2.89052492e-16  1.25000000e-01  1.25000000e-01  1.25000000e-01
  1.25000000e-01  1.25000000e-01  1.25000000e-01  1.25000000e-01
  1.25000000e-01]
alpha HOMO (B3u) = -1.11427962547601  LUMO (B1u) = -0.461937133978526
alpha irrep_nelec = [2, 0, 0, 0, 0, 1, 1]
beta  irrep_nelec = [2, 0, 0, 0, 0, 0, 0]
alpha-Ag nocc = 2  HOMO = -1.62442429296894  LUMO = -0.1437006929604
   mo_energy = [-1.63262055e+01 -1.62442429e+00 -1.43700693e-01 -1.98204300e-02
  2.66001092e-03  5.25017088e-03  4.28338758e-01  4.35239236e-01
  8.99490509e-01  1.98070908e+00  2.01048190e+00  1.57420191e+01]
alpha-B1g nocc = 0
   mo_energy = [0.00525017 0.42833876 1.98070908]
alpha-B2g nocc = 0
   mo_energy = [0.00298705 0.4330925  2.0019066 ]
alpha-B3g nocc = 0
   mo_energy = [0.00298705 0.4330925  2.0019066 ]
alpha-B1u nocc = 0
   mo_energy = [-4.61937134e-01 -9.27778002e-02 -3.24154298e-03  6.94504898e-01
  1.39904980e+01]
alpha-B2u nocc = 1  HOMO = -1.11427962547601  LUMO = -0.096806476810159
   mo_energy = [-1.11427963e+00 -9.68064768e-02 -1.28758994e-02  6.27108191e-01
  1.39631247e+01]
alpha-B3u nocc = 1  HOMO = -1.11427962547601  LUMO = -0.0968064768101591
   mo_energy = [-1.11427963e+00 -9.68064768e-02 -1.28758994e-02  6.27108191e-01
  1.39631247e+01]
beta-Ag nocc = 2  HOMO = -1.30838195320463  LUMO = -0.136723191672013
   mo_energy = [-1.62530377e+01 -1.30838195e+00 -1.36723192e-01 -9.60990220e-03
  4.69164501e-03  9.87779559e-03  4.55211437e-01  4.83856796e-01
  9.75582048e-01  2.08070309e+00  2.15301917e+00  1.58111189e+01]
beta-B1g nocc = 0
   mo_energy = [0.0098778  0.4838568  2.15301917]
beta-B2g nocc = 0
   mo_energy = [0.00543625 0.4622016  2.09766304]
beta-B3g nocc = 0
   mo_energy = [0.00543625 0.4622016  2.09766304]
beta-B1u nocc = 0
   mo_energy = [-4.04396699e-01 -9.04399174e-02  2.30324781e-03  7.25313889e-01
  1.40161829e+01]
beta-B2u nocc = 0
   mo_energy = [-0.32888939 -0.0853972   0.01466539  0.77902578 14.07549734]
beta-B3u nocc = 0
   mo_energy = [-0.32888939 -0.0853972   0.01466539  0.77902578 14.07549734]
multiplicity <S^2> = 2.0066333  2S+1 = 3.0044189
E1 = -70.02309263582615  Ecoul = 16.141241954512022
cycle= 19 E= -53.8818506813141  delta_E= -1.42e-14  |g|= 3.01e-10  |ddm|= 5.9e-10
    CPU time for cycle= 19      0.03 sec, wall time      0.01 sec
diis-norm(errvec)=4.25243e-10
Linear dependence found in DIIS error vectors.
diis-c [-2.89052492e-16  1.25000000e-01  1.25000000e-01  1.25000000e-01
  1.25000000e-01  1.25000000e-01  1.25000000e-01  1.25000000e-01
  1.25000000e-01]
alpha HOMO (B2u) = -1.11427962547358  LUMO (B1u) = -0.461937133986019
alpha irrep_nelec = [2, 0, 0, 0, 0, 1, 1]
beta  irrep_nelec = [2, 0, 0, 0, 0, 0, 0]
alpha-Ag nocc = 2  HOMO = -1.62442429295467  LUMO = -0.143700692959537
   mo_energy = [-1.63262055e+01 -1.62442429e+00 -1.43700693e-01 -1.98204300e-02
  2.66001092e-03  5.25017088e-03  4.28338758e-01  4.35239236e-01
  8.99490509e-01  1.98070908e+00  2.01048190e+00  1.57420191e+01]
alpha-B1g nocc = 0
   mo_energy = [0.00525017 0.42833876 1.98070908]
alpha-B2g nocc = 0
   mo_energy = [0.00298705 0.4330925  2.0019066 ]
alpha-B3g nocc = 0
   mo_energy = [0.00298705 0.4330925  2.0019066 ]
alpha-B1u nocc = 0
   mo_energy = [-4.61937134e-01 -9.27778002e-02 -3.24154298e-03  6.94504898e-01
  1.39904980e+01]
alpha-B2u nocc = 1  HOMO = -1.11427962547358  LUMO = -0.0968064768102665
   mo_energy = [-1.11427963e+00 -9.68064768e-02 -1.28758994e-02  6.27108191e-01
  1.39631247e+01]
alpha-B3u nocc = 1  HOMO = -1.11427962547358  LUMO = -0.0968064768102666
   mo_energy = [-1.11427963e+00 -9.68064768e-02 -1.28758994e-02  6.27108191e-01
  1.39631247e+01]
beta-Ag nocc = 2  HOMO = -1.30838195319781  LUMO = -0.136723191671759
   mo_energy = [-1.62530377e+01 -1.30838195e+00 -1.36723192e-01 -9.60990220e-03
  4.69164501e-03  9.87779559e-03  4.55211437e-01  4.83856796e-01
  9.75582048e-01  2.08070309e+00  2.15301917e+00  1.58111189e+01]
beta-B1g nocc = 0
   mo_energy = [0.0098778  0.4838568  2.15301917]
beta-B2g nocc = 0
   mo_energy = [0.00543625 0.4622016  2.09766304]
beta-B3g nocc = 0
   mo_energy = [0.00543625 0.4622016  2.09766304]
beta-B1u nocc = 0
   mo_energy = [-4.04396699e-01 -9.04399174e-02  2.30324781e-03  7.25313889e-01
  1.40161829e+01]
beta-B2u nocc = 0
   mo_energy = [-0.32888939 -0.0853972   0.01466539  0.77902578 14.07549734]
beta-B3u nocc = 0
   mo_energy = [-0.32888939 -0.0853972   0.01466539  0.77902578 14.07549734]
multiplicity <S^2> = 2.0066333  2S+1 = 3.0044189
E1 = -70.02309263583777  Ecoul = 16.141241954523647
cycle= 20 E= -53.8818506813141  delta_E=    0  |g|= 2.65e-10  |ddm|= 5.53e-11
    CPU time for cycle= 20      0.03 sec, wall time      0.01 sec
diis-norm(errvec)=3.74799e-10
Linear dependence found in DIIS error vectors.
diis-c [-2.89052492e-16  1.25000000e-01  1.25000000e-01  1.25000000e-01
  1.25000000e-01  1.25000000e-01  1.25000000e-01  1.25000000e-01
  1.25000000e-01]
alpha HOMO (B2u) = -1.11427962547071  LUMO (B1u) = -0.461937133988967
alpha irrep_nelec = [2, 0, 0, 0, 0, 1, 1]
beta  irrep_nelec = [2, 0, 0, 0, 0, 0, 0]
alpha-Ag nocc = 2  HOMO = -1.62442429294648  LUMO = -0.143700692959027
   mo_energy = [-1.63262055e+01 -1.62442429e+00 -1.43700693e-01 -1.98204300e-02
  2.66001092e-03  5.25017088e-03  4.28338758e-01  4.35239236e-01
  8.99490509e-01  1.98070908e+00  2.01048190e+00  1.57420191e+01]
alpha-B1g nocc = 0
   mo_energy = [0.00525017 0.42833876 1.98070908]
alpha-B2g nocc = 0
   mo_energy = [0.00298705 0.4330925  2.0019066 ]
alpha-B3g nocc = 0
   mo_energy = [0.00298705 0.4330925  2.0019066 ]
alpha-B1u nocc = 0
   mo_energy = [-4.61937134e-01 -9.27778002e-02 -3.24154298e-03  6.94504898e-01
  1.39904980e+01]
alpha-B2u nocc = 1  HOMO = -1.11427962547071  LUMO = -0.0968064768102917
   mo_energy = [-1.11427963e+00 -9.68064768e-02 -1.28758994e-02  6.27108191e-01
  1.39631247e+01]
alpha-B3u nocc = 1  HOMO = -1.11427962547071  LUMO = -0.0968064768102918
   mo_energy = [-1.11427963e+00 -9.68064768e-02 -1.28758994e-02  6.27108191e-01
  1.39631247e+01]
beta-Ag nocc = 2  HOMO = -1.30838195319568  LUMO = -0.136723191671683
   mo_energy = [-1.62530377e+01 -1.30838195e+00 -1.36723192e-01 -9.60990220e-03
  4.69164501e-03  9.87779559e-03  4.55211437e-01  4.83856796e-01
  9.75582048e-01  2.08070309e+00  2.15301917e+00  1.58111189e+01]
beta-B1g nocc = 0
   mo_energy = [0.0098778  0.4838568  2.15301917]
beta-B2g nocc = 0
   mo_energy = [0.00543625 0.4622016  2.09766304]
beta-B3g nocc = 0
   mo_energy = [0.00543625 0.4622016  2.09766304]
beta-B1u nocc = 0
   mo_energy = [-4.04396699e-01 -9.04399174e-02  2.30324781e-03  7.25313889e-01
  1.40161829e+01]
beta-B2u nocc = 0
   mo_energy = [-0.32888939 -0.0853972   0.01466539  0.77902578 14.07549734]
beta-B3u nocc = 0
   mo_energy = [-0.32888939 -0.0853972   0.01466539  0.77902578 14.07549734]
multiplicity <S^2> = 2.0066333  2S+1 = 3.0044189
E1 = -70.02309263584314  Ecoul = 16.141241954529
cycle= 21 E= -53.8818506813141  delta_E= -2.13e-14  |g|= 2.51e-10  |ddm|= 2.82e-11
    CPU time for cycle= 21      0.03 sec, wall time      0.01 sec
diis-norm(errvec)=3.54545e-10
Linear dependence found in DIIS error vectors.
diis-c [-2.89052492e-16  1.25000000e-01  1.25000000e-01  1.25000000e-01
  1.25000000e-01  1.25000000e-01  1.25000000e-01  1.25000000e-01
  1.25000000e-01]
alpha HOMO (B2u) = -1.11427962547235  LUMO (B1u) = -0.461937133983813
alpha irrep_nelec = [2, 0, 0, 0, 0, 1, 1]
beta  irrep_nelec = [2, 0, 0, 0, 0, 0, 0]
alpha-Ag nocc = 2  HOMO = -1.62442429293789  LUMO = -0.143700692957897
   mo_energy = [-1.63262055e+01 -1.62442429e+00 -1.43700693e-01 -1.98204300e-02
  2.66001092e-03  5.25017088e-03  4.28338758e-01  4.35239236e-01
  8.99490509e-01  1.98070908e+00  2.01048190e+00  1.57420191e+01]
alpha-B1g nocc = 0
   mo_energy = [0.00525017 0.42833876 1.98070908]
alpha-B2g nocc = 0
   mo_energy = [0.00298705 0.4330925  2.0019066 ]
alpha-B3g nocc = 0
   mo_energy = [0.00298705 0.4330925  2.0019066 ]
alpha-B1u nocc = 0
   mo_energy = [-4.61937134e-01 -9.27778002e-02 -3.24154298e-03  6.94504898e-01
  1.39904980e+01]
alpha-B2u nocc = 1  HOMO = -1.11427962547235  LUMO = -0.0968064768103998
   mo_energy = [-1.11427963e+00 -9.68064768e-02 -1.28758994e-02  6.27108191e-01
  1.39631247e+01]
alpha-B3u nocc = 1  HOMO = -1.11427962547235  LUMO = -0.0968064768103999
   mo_energy = [-1.11427963e+00 -9.68064768e-02 -1.28758994e-02  6.27108191e-01
  1.39631247e+01]
beta-Ag nocc = 2  HOMO = -1.30838195317445  LUMO = -0.136723191670787
   mo_energy = [-1.62530377e+01 -1.30838195e+00 -1.36723192e-01 -9.60990220e-03
  4.69164501e-03  9.87779559e-03  4.55211437e-01  4.83856796e-01
  9.75582048e-01  2.08070309e+00  2.15301917e+00  1.58111189e+01]
beta-B1g nocc = 0
   mo_energy = [0.0098778  0.4838568  2.15301917]
beta-B2g nocc = 0
   mo_energy = [0.00543625 0.4622016  2.09766304]
beta-B3g nocc = 0
   mo_energy = [0.00543625 0.4622016  2.09766304]
beta-B1u nocc = 0
   mo_energy = [-4.04396699e-01 -9.04399174e-02  2.30324781e-03  7.25313889e-01
  1.40161829e+01]
beta-B2u nocc = 0
   mo_energy = [-0.32888939 -0.0853972   0.01466539  0.77902578 14.07549734]
beta-B3u nocc = 0
   mo_energy = [-0.32888939 -0.0853972   0.01466539  0.77902578 14.07549734]
multiplicity <S^2> = 2.0066333  2S+1 = 3.0044189
E1 = -70.0230926358642  Ecoul = 16.141241954550065
cycle= 22 E= -53.8818506813141  delta_E= 7.11e-15  |g|= 2.23e-10  |ddm|= 9.56e-11
    CPU time for cycle= 22      0.03 sec, wall time      0.01 sec
diis-norm(errvec)=3.155e-10
Linear dependence found in DIIS error vectors.
diis-c [-2.89052492e-16  1.25000000e-01  1.25000000e-01  1.25000000e-01
  1.25000000e-01  1.25000000e-01  1.25000000e-01  1.25000000e-01
  1.25000000e-01]
alpha HOMO (B3u) = -1.1142796254745  LUMO (B1u) = -0.461937133979773
alpha irrep_nelec = [2, 0, 0, 0, 0, 1, 1]
beta  irrep_nelec = [2, 0, 0, 0, 0, 0, 0]
alpha-Ag nocc = 2  HOMO = -1.62442429293084  LUMO = -0.143700692956963
   mo_energy = [-1.63262055e+01 -1.62442429e+00 -1.43700693e-01 -1.98204300e-02
  2.66001092e-03  5.25017088e-03  4.28338758e-01  4.35239236e-01
  8.99490510e-01  1.98070908e+00  2.01048190e+00  1.57420191e+01]
alpha-B1g nocc = 0
   mo_energy = [0.00525017 0.42833876 1.98070908]
alpha-B2g nocc = 0
   mo_energy = [0.00298705 0.4330925  2.0019066 ]
alpha-B3g nocc = 0
   mo_energy = [0.00298705 0.4330925  2.0019066 ]
alpha-B1u nocc = 0
   mo_energy = [-4.61937134e-01 -9.27778002e-02 -3.24154298e-03  6.94504898e-01
  1.39904980e+01]
alpha-B2u nocc = 1  HOMO = -1.1142796254745  LUMO = -0.0968064768105195
   mo_energy = [-1.11427963e+00 -9.68064768e-02 -1.28758994e-02  6.27108191e-01
  1.39631247e+01]
alpha-B3u nocc = 1  HOMO = -1.1142796254745  LUMO = -0.0968064768105196
   mo_energy = [-1.11427963e+00 -9.68064768e-02 -1.28758994e-02  6.27108191e-01
  1.39631247e+01]
beta-Ag nocc = 2  HOMO = -1.30838195315508  LUMO = -0.13672319166997
   mo_energy = [-1.62530377e+01 -1.30838195e+00 -1.36723192e-01 -9.60990219e-03
  4.69164501e-03  9.87779559e-03  4.55211437e-01  4.83856796e-01
  9.75582048e-01  2.08070309e+00  2.15301917e+00  1.58111189e+01]
beta-B1g nocc = 0
   mo_energy = [0.0098778  0.4838568  2.15301917]
beta-B2g nocc = 0
   mo_energy = [0.00543625 0.4622016  2.09766304]
beta-B3g nocc = 0
   mo_energy = [0.00543625 0.4622016  2.09766304]
beta-B1u nocc = 0
   mo_energy = [-4.04396699e-01 -9.04399174e-02  2.30324781e-03  7.25313889e-01
  1.40161829e+01]
beta-B2u nocc = 0
   mo_energy = [-0.32888939 -0.0853972   0.01466539  0.77902578 14.07549734]
beta-B3u nocc = 0
   mo_energy = [-0.32888939 -0.0853972   0.01466539  0.77902578 14.07549734]
multiplicity <S^2> = 2.0066333  2S+1 = 3.0044189
E1 = -70.02309263588295  Ecoul = 16.14124195456885
cycle= 23 E= -53.8818506813141  delta_E= 4.26e-14  |g|= 1.98e-10  |ddm|= 8.93e-11
    CPU time for cycle= 23      0.03 sec, wall time      0.01 sec
diis-norm(errvec)=2.79489e-10
Linear dependence found in DIIS error vectors.
diis-c [-2.89052492e-16  1.25000000e-01  1.25000000e-01  1.25000000e-01
  1.25000000e-01  1.25000000e-01  1.25000000e-01  1.25000000e-01
  1.25000000e-01]
alpha HOMO (B2u) = -1.11427962547724  LUMO (B1u) = -0.461937133977453
alpha irrep_nelec = [2, 0, 0, 0, 0, 1, 1]
beta  irrep_nelec = [2, 0, 0, 0, 0, 0, 0]
alpha-Ag nocc = 2  HOMO = -1.62442429292957  LUMO = -0.143700692956444
   mo_energy = [-1.63262055e+01 -1.62442429e+00 -1.43700693e-01 -1.98204300e-02
  2.66001092e-03  5.25017088e-03  4.28338758e-01  4.35239236e-01
  8.99490510e-01  1.98070908e+00  2.01048190e+00  1.57420191e+01]
alpha-B1g nocc = 0
   mo_energy = [0.00525017 0.42833876 1.98070908]
alpha-B2g nocc = 0
   mo_energy = [0.00298705 0.4330925  2.0019066 ]
alpha-B3g nocc = 0
   mo_energy = [0.00298705 0.4330925  2.0019066 ]
alpha-B1u nocc = 0
   mo_energy = [-4.61937134e-01 -9.27778002e-02 -3.24154298e-03  6.94504898e-01
  1.39904980e+01]
alpha-B2u nocc = 1  HOMO = -1.11427962547724  LUMO = -0.0968064768106891
   mo_energy = [-1.11427963e+00 -9.68064768e-02 -1.28758994e-02  6.27108191e-01
  1.39631247e+01]
alpha-B3u nocc = 1  HOMO = -1.11427962547724  LUMO = -0.0968064768106891
   mo_energy = [-1.11427963e+00 -9.68064768e-02 -1.28758994e-02  6.27108191e-01
  1.39631247e+01]
beta-Ag nocc = 2  HOMO = -1.3083819531297  LUMO = -0.136723191668903
   mo_energy = [-1.62530377e+01 -1.30838195e+00 -1.36723192e-01 -9.60990219e-03
  4.69164501e-03  9.87779559e-03  4.55211437e-01  4.83856796e-01
  9.75582048e-01  2.08070309e+00  2.15301917e+00  1.58111189e+01]
beta-B1g nocc = 0
   mo_energy = [0.0098778  0.4838568  2.15301917]
beta-B2g nocc = 0
   mo_energy = [0.00543625 0.4622016  2.09766304]
beta-B3g nocc = 0
   mo_energy = [0.00543625 0.4622016  2.09766304]
beta-B1u nocc = 0
   mo_energy = [-4.04396699e-01 -9.04399174e-02  2.30324782e-03  7.25313889e-01
  1.40161829e+01]
beta-B2u nocc = 0
   mo_energy = [-0.32888939 -0.0853972   0.01466539  0.77902578 14.07549734]
beta-B3u nocc = 0
   mo_energy = [-0.32888939 -0.0853972   0.01466539  0.77902578 14.07549734]
multiplicity <S^2> = 2.0066333  2S+1 = 3.0044189
E1 = -70.02309263590516  Ecoul = 16.141241954591052
cycle= 24 E= -53.8818506813141  delta_E= -1.42e-14  |g|= 1.65e-10  |ddm|= 1.28e-10
    CPU time for cycle= 24      0.03 sec, wall time      0.01 sec
diis-norm(errvec)=2.33364e-10
Linear dependence found in DIIS error vectors.
diis-c [-2.89052492e-16  1.25000000e-01  1.25000000e-01  1.25000000e-01
  1.25000000e-01  1.25000000e-01  1.25000000e-01  1.25000000e-01
  1.25000000e-01]
alpha HOMO (B2u) = -1.11427962548212  LUMO (B1u) = -0.461937133976585
alpha irrep_nelec = [2, 0, 0, 0, 0, 1, 1]
[...]
   mo_energy = [-0.32888939 -0.0853972   0.01466539  0.77902578 14.07549734]
beta-B3u nocc = 0
   mo_energy = [-0.32888939 -0.0853972   0.01466539  0.77902578 14.07549734]
multiplicity <S^2> = 2.0066333  2S+1 = 3.0044189
E1 = -70.0230926360051  Ecoul = 16.141241954690955
cycle= 75 E= -53.8818506813141  delta_E= -7.11e-15  |g|= 1.91e-14  |ddm|= 1.75e-14
    CPU time for cycle= 75      0.03 sec, wall time      0.01 sec
diis-norm(errvec)=3.9738e-14
Linear dependence found in DIIS error vectors.
diis-c [-2.89052492e-16  1.25000000e-01  1.25000000e-01  1.25000000e-01
  1.25000000e-01  1.25000000e-01  1.25000000e-01  1.25000000e-01
  1.25000000e-01]
alpha HOMO (B2u) = -1.11427962549721  LUMO (B1u) = -0.461937133976432
alpha irrep_nelec = [2, 0, 0, 0, 0, 1, 1]
beta  irrep_nelec = [2, 0, 0, 0, 0, 0, 0]
alpha-Ag nocc = 2  HOMO = -1.62442429290287  LUMO = -0.143700692952849
   mo_energy = [-1.63262055e+01 -1.62442429e+00 -1.43700693e-01 -1.98204300e-02
  2.66001092e-03  5.25017088e-03  4.28338758e-01  4.35239236e-01
  8.99490510e-01  1.98070908e+00  2.01048190e+00  1.57420191e+01]
alpha-B1g nocc = 0
   mo_energy = [0.00525017 0.42833876 1.98070908]
alpha-B2g nocc = 0
   mo_energy = [0.00298705 0.4330925  2.0019066 ]
alpha-B3g nocc = 0
   mo_energy = [0.00298705 0.4330925  2.0019066 ]
alpha-B1u nocc = 0
   mo_energy = [-4.61937134e-01 -9.27778002e-02 -3.24154298e-03  6.94504898e-01
  1.39904980e+01]
alpha-B2u nocc = 1  HOMO = -1.11427962549721  LUMO = -0.096806476811558
   mo_energy = [-1.11427963e+00 -9.68064768e-02 -1.28758994e-02  6.27108191e-01
  1.39631247e+01]
alpha-B3u nocc = 1  HOMO = -1.11427962549721  LUMO = -0.096806476811558
   mo_energy = [-1.11427963e+00 -9.68064768e-02 -1.28758994e-02  6.27108191e-01
  1.39631247e+01]
beta-Ag nocc = 2  HOMO = -1.30838195302235  LUMO = -0.136723191664422
   mo_energy = [-1.62530377e+01 -1.30838195e+00 -1.36723192e-01 -9.60990219e-03
  4.69164501e-03  9.87779559e-03  4.55211437e-01  4.83856796e-01
  9.75582048e-01  2.08070309e+00  2.15301917e+00  1.58111189e+01]
beta-B1g nocc = 0
   mo_energy = [0.0098778  0.4838568  2.15301917]
beta-B2g nocc = 0
   mo_energy = [0.00543625 0.4622016  2.09766304]
beta-B3g nocc = 0
   mo_energy = [0.00543625 0.4622016  2.09766304]
beta-B1u nocc = 0
   mo_energy = [-4.04396699e-01 -9.04399174e-02  2.30324782e-03  7.25313889e-01
  1.40161829e+01]
beta-B2u nocc = 0
   mo_energy = [-0.32888939 -0.0853972   0.01466539  0.77902578 14.07549734]
beta-B3u nocc = 0
   mo_energy = [-0.32888939 -0.0853972   0.01466539  0.77902578 14.07549734]
multiplicity <S^2> = 2.0066333  2S+1 = 3.0044189
E1 = -70.02309263600505  Ecoul = 16.141241954690937
cycle= 76 E= -53.8818506813141  delta_E= 4.26e-14  |g|= 1.94e-14  |ddm|= 1.15e-14
    CPU time for cycle= 76      0.03 sec, wall time      0.01 sec
diis-norm(errvec)=4.61714e-14
Linear dependence found in DIIS error vectors.
diis-c [-2.89052492e-16  1.25000000e-01  1.25000000e-01  1.25000000e-01
  1.25000000e-01  1.25000000e-01  1.25000000e-01  1.25000000e-01
  1.25000000e-01]
alpha HOMO (B3u) = -1.11427962549721  LUMO (B1u) = -0.461937133976432
alpha irrep_nelec = [2, 0, 0, 0, 0, 1, 1]
beta  irrep_nelec = [2, 0, 0, 0, 0, 0, 0]
alpha-Ag nocc = 2  HOMO = -1.62442429290287  LUMO = -0.143700692952849
   mo_energy = [-1.63262055e+01 -1.62442429e+00 -1.43700693e-01 -1.98204300e-02
  2.66001092e-03  5.25017088e-03  4.28338758e-01  4.35239236e-01
  8.99490510e-01  1.98070908e+00  2.01048190e+00  1.57420191e+01]
alpha-B1g nocc = 0
   mo_energy = [0.00525017 0.42833876 1.98070908]
alpha-B2g nocc = 0
   mo_energy = [0.00298705 0.4330925  2.0019066 ]
alpha-B3g nocc = 0
   mo_energy = [0.00298705 0.4330925  2.0019066 ]
alpha-B1u nocc = 0
   mo_energy = [-4.61937134e-01 -9.27778002e-02 -3.24154298e-03  6.94504898e-01
  1.39904980e+01]
alpha-B2u nocc = 1  HOMO = -1.11427962549721  LUMO = -0.0968064768115581
   mo_energy = [-1.11427963e+00 -9.68064768e-02 -1.28758994e-02  6.27108191e-01
  1.39631247e+01]
alpha-B3u nocc = 1  HOMO = -1.11427962549721  LUMO = -0.0968064768115581
   mo_energy = [-1.11427963e+00 -9.68064768e-02 -1.28758994e-02  6.27108191e-01
  1.39631247e+01]
beta-Ag nocc = 2  HOMO = -1.30838195302235  LUMO = -0.136723191664422
   mo_energy = [-1.62530377e+01 -1.30838195e+00 -1.36723192e-01 -9.60990219e-03
  4.69164501e-03  9.87779559e-03  4.55211437e-01  4.83856796e-01
  9.75582048e-01  2.08070309e+00  2.15301917e+00  1.58111189e+01]
beta-B1g nocc = 0
   mo_energy = [0.0098778  0.4838568  2.15301917]
beta-B2g nocc = 0
   mo_energy = [0.00543625 0.4622016  2.09766304]
beta-B3g nocc = 0
   mo_energy = [0.00543625 0.4622016  2.09766304]
beta-B1u nocc = 0
   mo_energy = [-4.04396699e-01 -9.04399174e-02  2.30324782e-03  7.25313889e-01
  1.40161829e+01]
beta-B2u nocc = 0
   mo_energy = [-0.32888939 -0.0853972   0.01466539  0.77902578 14.07549734]
beta-B3u nocc = 0
   mo_energy = [-0.32888939 -0.0853972   0.01466539  0.77902578 14.07549734]
multiplicity <S^2> = 2.0066333  2S+1 = 3.0044189
E1 = -70.02309263600507  Ecoul = 16.14124195469095
cycle= 77 E= -53.8818506813141  delta_E= -1.42e-14  |g|= 2.45e-14  |ddm|= 1.2e-14
    CPU time for cycle= 77      0.03 sec, wall time      0.01 sec
diis-norm(errvec)=6.24263e-14
Linear dependence found in DIIS error vectors.
diis-c [-2.89052492e-16  1.25000000e-01  1.25000000e-01  1.25000000e-01
  1.25000000e-01  1.25000000e-01  1.25000000e-01  1.25000000e-01
  1.25000000e-01]
alpha HOMO (B2u) = -1.11427962549721  LUMO (B1u) = -0.461937133976432
alpha irrep_nelec = [2, 0, 0, 0, 0, 1, 1]
beta  irrep_nelec = [2, 0, 0, 0, 0, 0, 0]
alpha-Ag nocc = 2  HOMO = -1.62442429290287  LUMO = -0.14370069295285
   mo_energy = [-1.63262055e+01 -1.62442429e+00 -1.43700693e-01 -1.98204300e-02
  2.66001092e-03  5.25017088e-03  4.28338758e-01  4.35239236e-01
  8.99490510e-01  1.98070908e+00  2.01048190e+00  1.57420191e+01]
alpha-B1g nocc = 0
   mo_energy = [0.00525017 0.42833876 1.98070908]
alpha-B2g nocc = 0
   mo_energy = [0.00298705 0.4330925  2.0019066 ]
alpha-B3g nocc = 0
   mo_energy = [0.00298705 0.4330925  2.0019066 ]
alpha-B1u nocc = 0
   mo_energy = [-4.61937134e-01 -9.27778002e-02 -3.24154298e-03  6.94504898e-01
  1.39904980e+01]
alpha-B2u nocc = 1  HOMO = -1.11427962549721  LUMO = -0.0968064768115581
   mo_energy = [-1.11427963e+00 -9.68064768e-02 -1.28758994e-02  6.27108191e-01
  1.39631247e+01]
alpha-B3u nocc = 1  HOMO = -1.11427962549721  LUMO = -0.096806476811558
   mo_energy = [-1.11427963e+00 -9.68064768e-02 -1.28758994e-02  6.27108191e-01
  1.39631247e+01]
beta-Ag nocc = 2  HOMO = -1.30838195302235  LUMO = -0.136723191664422
   mo_energy = [-1.62530377e+01 -1.30838195e+00 -1.36723192e-01 -9.60990219e-03
  4.69164501e-03  9.87779559e-03  4.55211437e-01  4.83856796e-01
  9.75582048e-01  2.08070309e+00  2.15301917e+00  1.58111189e+01]
beta-B1g nocc = 0
   mo_energy = [0.0098778  0.4838568  2.15301917]
beta-B2g nocc = 0
   mo_energy = [0.00543625 0.4622016  2.09766304]
beta-B3g nocc = 0
   mo_energy = [0.00543625 0.4622016  2.09766304]
beta-B1u nocc = 0
   mo_energy = [-4.04396699e-01 -9.04399174e-02  2.30324782e-03  7.25313889e-01
  1.40161829e+01]
beta-B2u nocc = 0
   mo_energy = [-0.32888939 -0.0853972   0.01466539  0.77902578 14.07549734]
beta-B3u nocc = 0
   mo_energy = [-0.32888939 -0.0853972   0.01466539  0.77902578 14.07549734]
multiplicity <S^2> = 2.0066333  2S+1 = 3.0044189
E1 = -70.02309263600509  Ecoul = 16.141241954690955
cycle= 78 E= -53.8818506813141  delta_E= -1.42e-14  |g|= 2.23e-14  |ddm|= 3.77e-15
    CPU time for cycle= 78      0.03 sec, wall time      0.01 sec
diis-norm(errvec)=2.13055e-14
Linear dependence found in DIIS error vectors.
diis-c [-2.89052492e-16  1.25000000e-01  1.25000000e-01  1.25000000e-01
  1.25000000e-01  1.25000000e-01  1.25000000e-01  1.25000000e-01
  1.25000000e-01]
alpha HOMO (B2u) = -1.11427962549721  LUMO (B1u) = -0.461937133976433
alpha irrep_nelec = [2, 0, 0, 0, 0, 1, 1]
beta  irrep_nelec = [2, 0, 0, 0, 0, 0, 0]
alpha-Ag nocc = 2  HOMO = -1.62442429290287  LUMO = -0.14370069295285
   mo_energy = [-1.63262055e+01 -1.62442429e+00 -1.43700693e-01 -1.98204300e-02
  2.66001092e-03  5.25017088e-03  4.28338758e-01  4.35239236e-01
  8.99490510e-01  1.98070908e+00  2.01048190e+00  1.57420191e+01]
alpha-B1g nocc = 0
   mo_energy = [0.00525017 0.42833876 1.98070908]
alpha-B2g nocc = 0
   mo_energy = [0.00298705 0.4330925  2.0019066 ]
alpha-B3g nocc = 0
   mo_energy = [0.00298705 0.4330925  2.0019066 ]
alpha-B1u nocc = 0
   mo_energy = [-4.61937134e-01 -9.27778002e-02 -3.24154298e-03  6.94504898e-01
  1.39904980e+01]
alpha-B2u nocc = 1  HOMO = -1.11427962549721  LUMO = -0.096806476811558
   mo_energy = [-1.11427963e+00 -9.68064768e-02 -1.28758994e-02  6.27108191e-01
  1.39631247e+01]
alpha-B3u nocc = 1  HOMO = -1.11427962549721  LUMO = -0.0968064768115581
   mo_energy = [-1.11427963e+00 -9.68064768e-02 -1.28758994e-02  6.27108191e-01
  1.39631247e+01]
beta-Ag nocc = 2  HOMO = -1.30838195302235  LUMO = -0.136723191664422
   mo_energy = [-1.62530377e+01 -1.30838195e+00 -1.36723192e-01 -9.60990219e-03
  4.69164501e-03  9.87779559e-03  4.55211437e-01  4.83856796e-01
  9.75582048e-01  2.08070309e+00  2.15301917e+00  1.58111189e+01]
beta-B1g nocc = 0
   mo_energy = [0.0098778  0.4838568  2.15301917]
beta-B2g nocc = 0
   mo_energy = [0.00543625 0.4622016  2.09766304]
beta-B3g nocc = 0
   mo_energy = [0.00543625 0.4622016  2.09766304]
beta-B1u nocc = 0
   mo_energy = [-4.04396699e-01 -9.04399174e-02  2.30324782e-03  7.25313889e-01
  1.40161829e+01]
beta-B2u nocc = 0
   mo_energy = [-0.32888939 -0.0853972   0.01466539  0.77902578 14.07549734]
beta-B3u nocc = 0
   mo_energy = [-0.32888939 -0.0853972   0.01466539  0.77902578 14.07549734]
multiplicity <S^2> = 2.0066333  2S+1 = 3.0044189
E1 = -70.02309263600509  Ecoul = 16.141241954690944
cycle= 79 E= -53.8818506813141  delta_E= -1.42e-14  |g|= 3.24e-14  |ddm|= 5.77e-15
    CPU time for cycle= 79      0.03 sec, wall time      0.01 sec
diis-norm(errvec)=2.53919e-14
Linear dependence found in DIIS error vectors.
diis-c [-2.89052492e-16  1.25000000e-01  1.25000000e-01  1.25000000e-01
  1.25000000e-01  1.25000000e-01  1.25000000e-01  1.25000000e-01
  1.25000000e-01]
alpha HOMO (B2u) = -1.11427962549721  LUMO (B1u) = -0.461937133976432
alpha irrep_nelec = [2, 0, 0, 0, 0, 1, 1]
beta  irrep_nelec = [2, 0, 0, 0, 0, 0, 0]
alpha-Ag nocc = 2  HOMO = -1.62442429290287  LUMO = -0.14370069295285
   mo_energy = [-1.63262055e+01 -1.62442429e+00 -1.43700693e-01 -1.98204300e-02
  2.66001092e-03  5.25017088e-03  4.28338758e-01  4.35239236e-01
  8.99490510e-01  1.98070908e+00  2.01048190e+00  1.57420191e+01]
alpha-B1g nocc = 0
   mo_energy = [0.00525017 0.42833876 1.98070908]
alpha-B2g nocc = 0
   mo_energy = [0.00298705 0.4330925  2.0019066 ]
alpha-B3g nocc = 0
   mo_energy = [0.00298705 0.4330925  2.0019066 ]
alpha-B1u nocc = 0
   mo_energy = [-4.61937134e-01 -9.27778002e-02 -3.24154298e-03  6.94504898e-01
  1.39904980e+01]
alpha-B2u nocc = 1  HOMO = -1.11427962549721  LUMO = -0.0968064768115581
   mo_energy = [-1.11427963e+00 -9.68064768e-02 -1.28758994e-02  6.27108191e-01
  1.39631247e+01]
alpha-B3u nocc = 1  HOMO = -1.11427962549721  LUMO = -0.0968064768115579
   mo_energy = [-1.11427963e+00 -9.68064768e-02 -1.28758994e-02  6.27108191e-01
  1.39631247e+01]
beta-Ag nocc = 2  HOMO = -1.30838195302235  LUMO = -0.136723191664422
   mo_energy = [-1.62530377e+01 -1.30838195e+00 -1.36723192e-01 -9.60990219e-03
  4.69164501e-03  9.87779559e-03  4.55211437e-01  4.83856796e-01
  9.75582048e-01  2.08070309e+00  2.15301917e+00  1.58111189e+01]
beta-B1g nocc = 0
   mo_energy = [0.0098778  0.4838568  2.15301917]
beta-B2g nocc = 0
   mo_energy = [0.00543625 0.4622016  2.09766304]
beta-B3g nocc = 0
   mo_energy = [0.00543625 0.4622016  2.09766304]
beta-B1u nocc = 0
   mo_energy = [-4.04396699e-01 -9.04399174e-02  2.30324782e-03  7.25313889e-01
  1.40161829e+01]
beta-B2u nocc = 0
   mo_energy = [-0.32888939 -0.0853972   0.01466539  0.77902578 14.07549734]
beta-B3u nocc = 0
   mo_energy = [-0.32888939 -0.0853972   0.01466539  0.77902578 14.07549734]
multiplicity <S^2> = 2.0066333  2S+1 = 3.0044189
E1 = -70.02309263600507  Ecoul = 16.141241954690948
cycle= 80 E= -53.8818506813141  delta_E= 2.13e-14  |g|= 9.59e-15  |ddm|= 7.33e-15
    CPU time for cycle= 80      0.03 sec, wall time      0.01 sec
diis-norm(errvec)=4.43621e-14
Linear dependence found in DIIS error vectors.
diis-c [-2.89052492e-16  1.25000000e-01  1.25000000e-01  1.25000000e-01
  1.25000000e-01  1.25000000e-01  1.25000000e-01  1.25000000e-01
  1.25000000e-01]
alpha HOMO (B3u) = -1.11427962549721  LUMO (B1u) = -0.461937133976431
alpha irrep_nelec = [2, 0, 0, 0, 0, 1, 1]
beta  irrep_nelec = [2, 0, 0, 0, 0, 0, 0]
alpha-Ag nocc = 2  HOMO = -1.62442429290287  LUMO = -0.143700692952849
   mo_energy = [-1.63262055e+01 -1.62442429e+00 -1.43700693e-01 -1.98204300e-02
  2.66001092e-03  5.25017088e-03  4.28338758e-01  4.35239236e-01
  8.99490510e-01  1.98070908e+00  2.01048190e+00  1.57420191e+01]
alpha-B1g nocc = 0
   mo_energy = [0.00525017 0.42833876 1.98070908]
alpha-B2g nocc = 0
   mo_energy = [0.00298705 0.4330925  2.0019066 ]
alpha-B3g nocc = 0
   mo_energy = [0.00298705 0.4330925  2.0019066 ]
alpha-B1u nocc = 0
   mo_energy = [-4.61937134e-01 -9.27778002e-02 -3.24154298e-03  6.94504898e-01
  1.39904980e+01]
alpha-B2u nocc = 1  HOMO = -1.11427962549721  LUMO = -0.0968064768115581
   mo_energy = [-1.11427963e+00 -9.68064768e-02 -1.28758994e-02  6.27108191e-01
  1.39631247e+01]
alpha-B3u nocc = 1  HOMO = -1.11427962549721  LUMO = -0.096806476811558
   mo_energy = [-1.11427963e+00 -9.68064768e-02 -1.28758994e-02  6.27108191e-01
  1.39631247e+01]
beta-Ag nocc = 2  HOMO = -1.30838195302235  LUMO = -0.136723191664422
   mo_energy = [-1.62530377e+01 -1.30838195e+00 -1.36723192e-01 -9.60990219e-03
  4.69164501e-03  9.87779559e-03  4.55211437e-01  4.83856796e-01
  9.75582048e-01  2.08070309e+00  2.15301917e+00  1.58111189e+01]
beta-B1g nocc = 0
   mo_energy = [0.0098778  0.4838568  2.15301917]
beta-B2g nocc = 0
   mo_energy = [0.00543625 0.4622016  2.09766304]
beta-B3g nocc = 0
   mo_energy = [0.00543625 0.4622016  2.09766304]
beta-B1u nocc = 0
   mo_energy = [-4.04396699e-01 -9.04399174e-02  2.30324782e-03  7.25313889e-01
  1.40161829e+01]
beta-B2u nocc = 0
   mo_energy = [-0.32888939 -0.0853972   0.01466539  0.77902578 14.07549734]
beta-B3u nocc = 0
   mo_energy = [-0.32888939 -0.0853972   0.01466539  0.77902578 14.07549734]
multiplicity <S^2> = 2.0066333  2S+1 = 3.0044189
E1 = -70.02309263600506  Ecoul = 16.14124195469094
cycle= 81 E= -53.8818506813141  delta_E= 7.11e-15  |g|= 1.17e-14  |ddm|= 1.27e-14
    CPU time for cycle= 81      0.03 sec, wall time      0.01 sec
diis-norm(errvec)=1.86317e-14
Linear dependence found in DIIS error vectors.
diis-c [-2.89052492e-16  1.25000000e-01  1.25000000e-01  1.25000000e-01
  1.25000000e-01  1.25000000e-01  1.25000000e-01  1.25000000e-01
  1.25000000e-01]
alpha HOMO (B2u) = -1.11427962549721  LUMO (B1u) = -0.461937133976432
alpha irrep_nelec = [2, 0, 0, 0, 0, 1, 1]
beta  irrep_nelec = [2, 0, 0, 0, 0, 0, 0]
alpha-Ag nocc = 2  HOMO = -1.62442429290287  LUMO = -0.143700692952849
   mo_energy = [-1.63262055e+01 -1.62442429e+00 -1.43700693e-01 -1.98204300e-02
  2.66001092e-03  5.25017088e-03  4.28338758e-01  4.35239236e-01
  8.99490510e-01  1.98070908e+00  2.01048190e+00  1.57420191e+01]
alpha-B1g nocc = 0
   mo_energy = [0.00525017 0.42833876 1.98070908]
alpha-B2g nocc = 0
   mo_energy = [0.00298705 0.4330925  2.0019066 ]
alpha-B3g nocc = 0
   mo_energy = [0.00298705 0.4330925  2.0019066 ]
alpha-B1u nocc = 0
   mo_energy = [-4.61937134e-01 -9.27778002e-02 -3.24154298e-03  6.94504898e-01
  1.39904980e+01]
alpha-B2u nocc = 1  HOMO = -1.11427962549721  LUMO = -0.0968064768115581
   mo_energy = [-1.11427963e+00 -9.68064768e-02 -1.28758994e-02  6.27108191e-01
  1.39631247e+01]
alpha-B3u nocc = 1  HOMO = -1.11427962549721  LUMO = -0.0968064768115581
   mo_energy = [-1.11427963e+00 -9.68064768e-02 -1.28758994e-02  6.27108191e-01
  1.39631247e+01]
beta-Ag nocc = 2  HOMO = -1.30838195302235  LUMO = -0.136723191664422
   mo_energy = [-1.62530377e+01 -1.30838195e+00 -1.36723192e-01 -9.60990219e-03
  4.69164501e-03  9.87779559e-03  4.55211437e-01  4.83856796e-01
  9.75582048e-01  2.08070309e+00  2.15301917e+00  1.58111189e+01]
beta-B1g nocc = 0
   mo_energy = [0.0098778  0.4838568  2.15301917]
beta-B2g nocc = 0
   mo_energy = [0.00543625 0.4622016  2.09766304]
beta-B3g nocc = 0
   mo_energy = [0.00543625 0.4622016  2.09766304]
beta-B1u nocc = 0
   mo_energy = [-4.04396699e-01 -9.04399174e-02  2.30324782e-03  7.25313889e-01
  1.40161829e+01]
beta-B2u nocc = 0
   mo_energy = [-0.32888939 -0.0853972   0.01466539  0.77902578 14.07549734]
beta-B3u nocc = 0
   mo_energy = [-0.32888939 -0.0853972   0.01466539  0.77902578 14.07549734]
multiplicity <S^2> = 2.0066333  2S+1 = 3.0044189
E1 = -70.02309263600507  Ecoul = 16.14124195469095
cycle= 82 E= -53.8818506813141  delta_E=    0  |g|= 9.86e-15  |ddm|= 4.88e-15
    CPU time for cycle= 82      0.03 sec, wall time      0.01 sec
alpha HOMO (B2u) = -1.11427962549721  LUMO (B1u) = -0.461937133976432
alpha irrep_nelec = [2, 0, 0, 0, 0, 1, 1]
beta  irrep_nelec = [2, 0, 0, 0, 0, 0, 0]
alpha-Ag nocc = 2  HOMO = -1.62442429290287  LUMO = -0.143700692952849
   mo_energy = [-1.63262055e+01 -1.62442429e+00 -1.43700693e-01 -1.98204300e-02
  2.66001092e-03  5.25017088e-03  4.28338758e-01  4.35239236e-01
  8.99490510e-01  1.98070908e+00  2.01048190e+00  1.57420191e+01]
alpha-B1g nocc = 0
   mo_energy = [0.00525017 0.42833876 1.98070908]
alpha-B2g nocc = 0
   mo_energy = [0.00298705 0.4330925  2.0019066 ]
alpha-B3g nocc = 0
   mo_energy = [0.00298705 0.4330925  2.0019066 ]
alpha-B1u nocc = 0
   mo_energy = [-4.61937134e-01 -9.27778002e-02 -3.24154298e-03  6.94504898e-01
  1.39904980e+01]
alpha-B2u nocc = 1  HOMO = -1.11427962549721  LUMO = -0.0968064768115579
   mo_energy = [-1.11427963e+00 -9.68064768e-02 -1.28758994e-02  6.27108191e-01
  1.39631247e+01]
alpha-B3u nocc = 1  HOMO = -1.11427962549721  LUMO = -0.0968064768115581
   mo_energy = [-1.11427963e+00 -9.68064768e-02 -1.28758994e-02  6.27108191e-01
  1.39631247e+01]
beta-Ag nocc = 2  HOMO = -1.30838195302235  LUMO = -0.136723191664422
   mo_energy = [-1.62530377e+01 -1.30838195e+00 -1.36723192e-01 -9.60990219e-03
  4.69164501e-03  9.87779559e-03  4.55211437e-01  4.83856796e-01
  9.75582048e-01  2.08070309e+00  2.15301917e+00  1.58111189e+01]
beta-B1g nocc = 0
   mo_energy = [0.0098778  0.4838568  2.15301917]
beta-B2g nocc = 0
   mo_energy = [0.00543625 0.4622016  2.09766304]
beta-B3g nocc = 0
   mo_energy = [0.00543625 0.4622016  2.09766304]
beta-B1u nocc = 0
   mo_energy = [-4.04396699e-01 -9.04399174e-02  2.30324782e-03  7.25313889e-01
  1.40161829e+01]
beta-B2u nocc = 0
   mo_energy = [-0.32888939 -0.0853972   0.01466539  0.77902578 14.07549734]
beta-B3u nocc = 0
   mo_energy = [-0.32888939 -0.0853972   0.01466539  0.77902578 14.07549734]
multiplicity <S^2> = 2.0066333  2S+1 = 3.0044189
E1 = -70.02309263600507  Ecoul = 16.141241954690948
Extra cycle  E= -53.8818506813141  delta_E= -7.11e-15  |g|= 1.58e-14  |ddm|= 4.88e-15
    CPU time for scf_cycle      2.69 sec, wall time      0.70 sec
    CPU time for SCF      2.69 sec, wall time      0.70 sec
converged SCF energy = -53.8818506813141  <S^2> = 2.0066333  2S+1 = 3.0044189
irreps of each MO ['Ag' 'Ag' 'B2u' 'B3u' 'B1u' 'Ag' 'B2u' 'B3u' 'B1u' 'Ag' 'B2u' 'B3u' 'B1u'
 'Ag' 'B2g' 'B3g' 'Ag' 'B1g' 'Ag' 'B1g' 'B2g' 'B3g' 'Ag' 'B2u' 'B3u' 'B1u'
 'Ag' 'Ag' 'B1g' 'B2g' 'B3g' 'Ag' 'B2u' 'B3u' 'B1u' 'Ag']
irreps of each MO ['Ag' 'Ag' 'B1u' 'B2u' 'B3u' 'Ag' 'B1u' 'B2u' 'B3u' 'Ag' 'B1u' 'Ag' 'B2g'
 'B3g' 'Ag' 'B1g' 'B2u' 'B3u' 'Ag' 'B2g' 'B3g' 'Ag' 'B1g' 'B1u' 'B2u'
 'B3u' 'Ag' 'Ag' 'B2g' 'B3g' 'Ag' 'B1g' 'B1u' 'B2u' 'B3u' 'Ag']
irreps of each MO ['Ag' 'Ag' 'B3u' 'B2u' 'B1u' 'Ag' 'B1u' 'B3u' 'B2u' 'Ag' 'B1u' 'B2u' 'B3u'
 'Ag' 'B3g' 'B2g' 'B1g' 'Ag' 'B1g' 'Ag' 'B3g' 'B2g' 'Ag' 'B2u' 'B3u' 'B1u'
 'Ag' 'B1g' 'Ag' 'B3g' 'B2g' 'Ag' 'B2u' 'B3u' 'B1u' 'Ag']
