Starting run at: Mon 04 May 2026 06:36:06 AM EDT
 **********************************************************************
                          MRCC program system
 **********************************************************************
 
                              Written by
     Mihaly Kallay, Peter R. Nagy, David Mester, Laszlo Gyevi-Nagy,
        Jozsef Csoka, P. Bernat Szabo, Zoltan Rolik, Gyula Samu,
      Bence Hegely, Bence Ladoczki, Klara Petrov, Jozsef Csontos,
     Adam Ganyecz, Istvan Ladjanszki, Lorant Szegedy, Mate Farkas,
          Pal D. Mezei, Reka A. Horvath, and Balazs D. Lorincz
 
        Department of Physical Chemistry and Materials Science
            Budapest University of Technology and Economics
                  Budapest P.O.Box 91, H-1521 Hungary
 
                              www.mrcc.hu
 
                            Version: 25.1.1

 ************************ 2026-05-04 06:36:07 *************************
 Executing minp...

 Reading input from MINP...
 
 Input file:
 
basis=d-aug-cc-pwCVQZ
iface=cfour
uncontract=off
calc=CCSDTQP
ccprog=mrcc
mem=925GB
core=corr
itol=18
scftol=13
cctol=10
ccmaxit=999
scfmaxit=9999
scfiguess=ao
scftype=UHF
#rohftype=semicanonical
rest=2
charge=+0
mult=3
refdet=serialno
1-3
4,5

symm=4
occ=2,0,0,0,0,1,1,1/2,0,0,0,0,0,0,1
geom
O

#Li 1 R
#R=3.065

#unit=angstroms

tprint=0.01
verbosity=3
#nstate=4
 
 
 Checking keyword combinations...
 
 Keywords:
 
 active=none
 agrid=ld0006-ld0590
 agrid_pssp=ld0006-ld0194
 agrid_pssp_sm=ld0006-ld0074
 basis=d-aug-cc-pwcvqz
 basis_sm=none
 basopt=off
 bfbasis=none
 bfgsmem=10
 bfgstol=1.0d-3
 boysalg=jacobi
 bpcompo=0.985
 bpcompv=0.98
 bpdfo=0.985
 bpocc=0.985
 bppdo=0.985
 bppdv=0.98
 bpedo=0.985
 bpedv=0.98
 bp_subsyso=0.95
 bp_subsysv=0.95
 cabscorr=off
 cabsdual=off
 calc=ccsdtqp
 ccmaxit=999
 ccprog=mrcc
 ccsdalg=disk
 ccsdmkl=seq
 ccsdrest=off
 ccsdthreads=2
 cctol=10
 charge=+0
 cialg=disk
 ciguess=off
 cmpgrp=auto
 comprest=off
 coord_sys=ric
 core=corr
 corembed=off
 csapprox=off
 cvs=off
 dboc=off
 deltaf12=off
 delocsomofact=
 dendec=cholesky
 dens=0
 denscorr=0
 dfalg=lineq
 dfbasis_cab=none
 dfbasis_cor=none
 dfbasis_scf=none
 dfbasis_scf_sm=auto
 dfintran=ovirt
 dft=off
 dhexc=adc(2)
 diag=david
 docc=
 domrad=10.d0
 drpaalg=fit
 dual=off
 dual_df=off
 dyson=off
 ecp=auto
 edisp=off
 edisp_embed=off
 embed=off
 epairestfact=off
 epairscale=1.d0
 etemp=300
 epert=none
 eps=
 espcharge=off
 excrad=0.d0
 excrad_f12=0.d0
 excrad_fin=0.000000000D+00
 fastdbbsc=v2
 fitting=coulomb
 fmm=off
 fmmord=8
 fnonorb=
 freq=off
 gamma=1.d0
 gauss=spher
 geom=zmat
 gopt=off
 ghost=none
 gtol=7
 grdens=off
 grid=auto
 grid_sm=auto
 gridbatch_cos=2000
 grtol=10
 guido_ct=off
 hamilton=dc
 iface=cfour
 incore=off
 intalg=auto
 ip_ea=off
 itol=18
 laptol=1.d-2
 lccoporder=trffirst
 lcorthr=normal
 lccrest=off
 ldfgrad_tol=8
 lmp2dens=on
 lnoepso=0.d0
 lnoepsv=1e-6
 localcc=off
 localcorrsymm=off
 locintrf=disk
 mact=
 maxact=off
 maxdim=200
 maxex=0
 maxmicroit=100
 mcscfiguess=hf
 mem=925gb
 mmprog=
 molden=on
 mp2ongrid=off
 mpitasks=1
 mulmet=0
 mult=3
 nab=off
 nacto=0
 nactv=0
 naf_amp=3.16d-3
 naf_cor=off
 naf_f12=off
 naf_scf=off
 nafalg=albe
 nafdens=off
 naftyp=
 nchol=auto
 ndeps=1e-3
 nstate=1
 nsing=0
 nto=off
 ntrip=0
 num_grad=off
 occ=2,0,0,0,0,1,1,1/2,0,0,0,0,0,0,1
 occri=off
 oniom=off
 oniom_eechg=off
 oniom_pcm=off
 oniom_qcorr=off
 optalg=
 optmaxit=50
 optetol=1e-6
 optex=0
 optgtol=1e-4
 optstol=1e-3
 orblocc=off
 orbloce=off
 orbloco=off
 orblocv=off
 orblocguess=cholesky
 osveps=1e-3
 ovirt=off
 ovltol=1e-7
 ovosnorb=80.0
 pao_subsys_tol=1e-3
 pao_tol=1e-3
 pcm=off
 popul=off
 pressure=100000
 pssp=off
 ptfreq=0.0
 ptthreads=2
 qmreg=
 qmmm=off
 qro=off
 qscf=off
 redcost_exc=off
 redcost_tddft=off
 refdet=serialno
 rest=2
 rgrid=log3
 rism=off
 rohfcore=semicanonical
 rohftype=standard
 scfalg=auto
 scf_conv=auto
 scfdamp=0.0d0
 scfdamp_mode=off
 scfdamp_end=9999
 scfdamp_dampstep=0.d0
 scfdamp_dtol=0.0d0
 scfdamp_maxfact=0.0d0
 scfdamp_minfact=0.0d0
 scfdiis=on
 scfdiis_dtol=0.0d0
 scfdiis_end=9999
 scfdiis_start=2
 scfdiis_step=1
 scfdiis_watch=off
 scfdiis_wrange=10
 scfdiis_wlimit=5
 scfdiis_delmax=2
 scfdtol=14
 scfext=10
 scfguessdens=
 scfiguess=ao
 scfloc=off
 scflshift=0.20
 scflshift_end=8
 scflshift_dtol=0.0
 scflshift_gaptol=0.20
 scfmaxit=9999
 scftype=uhf
 scftol=13
 scspe=1.d0
 scsph=1.d0
 scsps=1.2d0
 scsps_t=1.2d0
 scspt=0.33333333333333
 scspt_t=0.33333333333333
 scspv=1.d0
 spairtol=1e-4
 sqmprog=
 subminp=top
 subsys_bopu=on
 symm=4
 talg=occ
 temp=298.15
 test=off
 theodore=off
 tlmo=0.999
 tpao=0.94
 tprint=0.01
 uncontract=off
 unit=angs
 usedisk=2
 verbosity=3
 wpairtol=0.100000000E-05
 ispstart=
 ispend=

 ************************ 2026-05-04 06:36:08 *************************
 Executing goldstone...

 Generation of CC equations in terms of H and T...
 Generation of antisymmetrized Goldstone diagrams...
 Number of diagrams in T^1 equations:    15
 Number of diagrams in T^2 equations:    38
 Number of diagrams in T^3 equations:    54
 Number of diagrams in T^4 equations:    80
 Number of diagrams in T^5 equations:    99
 Translation of diagrams to factorized equations...
 Optimizing intermediate calculation...
 Number of floating-point operations per iteration step:   3.1535E+15
 Probable CPU time per iteration step (hours):        31534.87
 Required memory (Mbytes):       1546011.3
 Number of intermediates:                                 141
 Number of intermediates to be stored:                     56
 Length of intermediate file (Mbytes):         19799.2

 ************************ 2026-05-04 06:36:08 *************************
 Executing xmrcc...

 **********************************************************************
 CC(                     5 ) calculation 
 
 
 Allocation of       947200.0 Mbytes of memory...
 Number of spinorbitals:                   268
 Number of alpha electrons:                        5
 Number of beta electrons:                         3
 Spin multiplicity:                     2
 z-component of spin:  1.0
 Spatial symmetry:                      4
 Convergence criterion:  1.0E-10
 Construction of occupation graphs...
 Number of                     0 -fold excitations:                      1
 Number of                     1 -fold excitations:                    196
 Number of                     2 -fold excitations:                  48341
 Number of                     3 -fold excitations:                6642540
 Number of                     4 -fold excitations:              471777814
 Number of                     5 -fold excitations:            17675212092
 Total number of configurations:            18153680984
 Calculation of coupling coefficients...
 Length of intermediate file (Mbytes):         12521.3
 
 ======================================================================
 
 Memory requirements /Mbyte/: 
               Minimal        Optimal
 Real*8:    1139346.6606   1139346.6606
 Integer:    173659.5419
 Total:     1313006.2025   1313006.2025
 

 ************************ 2026-05-04 07:47:15 *************************
 Executing goldstone...

 Generation of MRCC equations in terms of H and T...
 Generation of antisymmetrized Goldstone diagrams...
 Number of diagrams in T^1 equations:    15
 Number of diagrams in T^2 equations:    38
 Number of diagrams in T^3 equations:    54
 Number of diagrams in T^4 equations:    80
 Number of diagrams in T^5 equations:    99
 Translation of diagrams to factorized equations...
 Number of restricted diagrams in T^1 equations:     30
 Number of restricted diagrams in T^2 equations:    129
 Number of restricted diagrams in T^3 equations:    306
 Number of restricted diagrams in T^4 equations:    669
 Number of restricted diagrams in T^5 equations:   1238
 Optimizing intermediate calculation...
 Number of floating-point operations per iteration step:   1.7887E+15
 Probable CPU time per iteration step (hours):        17886.93
 Required memory (Mbytes):        160275.1
 Number of intermediates:                                 690
 Number of intermediates to be stored:                    237
 Length of intermediate file (Mbytes):        222045.5

 ************************ 2026-05-04 07:47:15 *************************
 Executing xmrcc...

 **********************************************************************
 MRCC(                     5 ) calculation 
 
 
 Allocation of       947200.0 Mbytes of memory...
 Number of spinorbitals:                   268
 Number of alpha electrons:                        5
 Number of beta electrons:                         3
 Number of active particles:                   130
 Number of active holes:                         0
 Spin multiplicity:                     2
 z-component of spin:  1.0
 Spatial symmetry:                      4
 Convergence criterion:  1.0E-10
 Construction of occupation graphs...
 Number of                     0 -fold excitations:                      1
 Number of                     1 -fold excitations:                    196
 Number of                     2 -fold excitations:                  48341
 Number of                     3 -fold excitations:                6642540
 Number of                     4 -fold excitations:              471777814
 Number of                     5 -fold excitations:            17675212092
 Total number of configurations:            18153680984
 Calculation of coupling coefficients...
 Length of intermediate file (Mbytes):        149459.7
 
 ======================================================================
 
 Memory requirements /Mbyte/: 
               Minimal        Optimal
 Real*8:      81698.7893     81698.7893
 Integer:    175150.9698
 Total:      256849.7591    256849.7591
 

 ************************ 2026-05-04 09:35:35 *************************
 Executing goldstone...

 Generation of MRCC equations in terms of H and T...
 Generation of antisymmetrized Goldstone diagrams...
 Number of diagrams in T^1 equations:    15
 Number of diagrams in T^2 equations:    34
 Number of diagrams in T^3 equations:     2
 Translation of diagrams to factorized equations...
 Number of restricted diagrams in T^1 equations:     78
 Number of restricted diagrams in T^2 equations:    299
 Number of restricted diagrams in T^3 equations:     18
 Optimizing intermediate calculation...
 Number of floating-point operations per iteration step:   7.6881E+09
 Probable CPU time per iteration step (hours):            0.08
 Required memory (Mbytes):         37325.0
 Number of intermediates:                                 239
 Number of intermediates to be stored:                    105
 Length of intermediate file (Mbytes):           616.1

 ************************ 2026-05-04 09:35:52 *************************
 Executing xmrcc...

 **********************************************************************
 MRCC(                     3 ) calculation 
 
 
 Allocation of       947200.0 Mbytes of memory...
 Number of spinorbitals:                   268
 Number of alpha electrons:                        5
 Number of beta electrons:                         3
 Number of active particles:                   130
 Number of active holes:                         0
 Spin multiplicity:                     2
 z-component of spin:  1.0
 Spatial symmetry:                      4
 Convergence criterion:  1.0E-10
 Construction of occupation graphs...
 Number of                     0 -fold excitations:                      1
 Number of                     1 -fold excitations:                    196
 Number of                     2 -fold excitations:                  48341
 Total number of configurations:                  48538
 Calculation of coupling coefficients...
 Length of intermediate file (Mbytes):           469.9
 
 ======================================================================
 
 Spin case  1   Alpha:  0   Beta:  3
 Number of excitations:                   5470
 Spin case  2   Alpha:  1   Beta:  2
 Number of excitations:                 255015
 Spin case  3   Alpha:  2   Beta:  1
 Number of excitations:                 509146
 Spin case  4   Alpha:  3   Beta:  0
 Number of excitations:                  54504
 Spin case  5   Alpha:  0   Beta:  3
 Number of excitations:                  17222
 Spin case  6   Alpha:  1   Beta:  2
 Number of excitations:                 251353
 Spin case  7   Alpha:  1   Beta:  2
 Number of excitations:                 529119
 Spin case  8   Alpha:  2   Beta:  1
 Number of excitations:                1020017
 Spin case  9   Alpha:  2   Beta:  1
 Number of excitations:                 517422
 Spin case 10   Alpha:  3   Beta:  0
 Number of excitations:                 165432
 Spin case 11   Alpha:  0   Beta:  3
 Number of excitations:                  17659
 Spin case 12   Alpha:  1   Beta:  2
 Number of excitations:                 521899
 Spin case 13   Alpha:  1   Beta:  2
 Number of excitations:                 264573
 Spin case 14   Alpha:  2   Beta:  1
 Number of excitations:                 493761
 Spin case 15   Alpha:  2   Beta:  1
 Number of excitations:                1036642
 Spin case 16   Alpha:  3   Beta:  0
 Number of excitations:                 162783
 Spin case 17   Alpha:  0   Beta:  3
 Number of excitations:                   5784
 Spin case 18   Alpha:  1   Beta:  2
 Number of excitations:                 260902
 Spin case 19   Alpha:  2   Beta:  1
 Number of excitations:                 501804
 Spin case 20   Alpha:  3   Beta:  0
 Number of excitations:                  52033
 Number of                     3 -fold excitations:                6642540
 
 Memory requirements /Mbyte/: 
               Minimal        Optimal
 Real*8:         77.2623      2460.4059
 Integer:       188.2598
 Total:         265.5221      2648.6657
 

 ************************ 2026-05-04 09:35:58 *************************
 Executing mrcc...

 **********************************************************************
 CCSD(T) calculation                                                    
 
 
 OpenMP parallel version is running.
 Number of CPU cores:   4
 Allocation of         2460.4 Mbytes of memory...
 Number of spinorbitals: 268
 Number of alpha electrons:  5
 Number of beta  electrons:  3
 Number of active particles:                   130
 Number of active holes:                         0
 Spin multiplicity: 3
 z-component of spin:  1.0
 Spatial symmetry: 4
 Convergence criterion:  1.0E-10
 Construction of occupation graphs...
 Number of 0-fold excitations: 1
 Number of 1-fold excitations: 196
 Number of 2-fold excitations: 48341
 Total number of determinants: 48538
 Calculation of coupling coefficients...
 Initial cluster amplitudes are generated.
 Length of intermediate file (Mbytes):     469.9
 Reading integral list from unit 55...
 Sorting integrals...
 Sorting integrals...
 Sorting integrals...
 Sorting integrals...
 Energy of reference determinant [au]:     -74.817662618929
 Calculation of MP denominators...
 
 Starting CC iteration...
 ==============================================================================
 Norm of residual vector:     3.08266265
 CPU time [hr]:     0.028                          Wall time [hr]:     0.016
 
 Iteration  1  CC energy:   -75.03631427          Energy decrease:   0.21865165
 Step       1  CC energy:   -75.036314268518652   Energy change  :   0.21865165
 ==============================================================================
 Norm of residual vector:     0.16798365
 CPU time [hr]:     0.039                          Wall time [hr]:     0.019
 
 Iteration  2  CC energy:   -75.04852331          Energy decrease:   0.01220904
 Step       2  CC energy:   -75.048523311973369   Energy change  :   0.01220904
 ==============================================================================
 Norm of residual vector:     0.03163100
 CPU time [hr]:     0.049                          Wall time [hr]:     0.023
 
 Iteration  3  CC energy:   -75.05138839          Energy decrease:   0.00286508
 Step       3  CC energy:   -75.051388391022854   Energy change  :   0.00286508
 ==============================================================================
 Norm of residual vector:     0.00971521
 CPU time [hr]:     0.059                          Wall time [hr]:     0.026
 
 Iteration  4  CC energy:   -75.05162711          Energy decrease:   0.00023872
 Step       4  CC energy:   -75.051627107741666   Energy change  :   0.00023872
 ==============================================================================
 Norm of residual vector:     0.00359283
 CPU time [hr]:     0.070                          Wall time [hr]:     0.030
 
 Iteration  5  CC energy:   -75.05159997          Energy decrease:   0.00002714
 Step       5  CC energy:   -75.051599965775324   Energy change  :   0.00002714
 ==============================================================================
 Norm of residual vector:     0.00156122
 CPU time [hr]:     0.080                          Wall time [hr]:     0.033
 
 Iteration  6  CC energy:   -75.05162690          Energy decrease:   0.00002693
 Step       6  CC energy:   -75.051626900386012   Energy change  :   0.00002693
 ==============================================================================
 Norm of residual vector:     0.00052217
 CPU time [hr]:     0.090                          Wall time [hr]:     0.037
 
 Iteration  7  CC energy:   -75.05163398          Energy decrease:   0.00000708
 Step       7  CC energy:   -75.051633976741115   Energy change  :   0.00000708
 ==============================================================================
 Norm of residual vector:     0.00018131
 CPU time [hr]:     0.101                          Wall time [hr]:     0.040
 
 Iteration  8  CC energy:   -75.05163394          Energy decrease:   0.00000004
 Step       8  CC energy:   -75.051633940971257   Energy change  :   0.00000004
 ==============================================================================
 Norm of residual vector:     0.00006996
 CPU time [hr]:     0.111                          Wall time [hr]:     0.044
 
 Iteration  9  CC energy:   -75.05163404          Energy decrease:   0.00000010
 Step       9  CC energy:   -75.051634044882007   Energy change  :   0.00000010
 ==============================================================================
 Norm of residual vector:     0.00002209
 CPU time [hr]:     0.121                          Wall time [hr]:     0.047
 
 Iteration 10  CC energy:   -75.05163385          Energy decrease:   0.00000019
 Step      10  CC energy:   -75.051633853683029   Energy change  :   0.00000019
 ==============================================================================
 Norm of residual vector:     0.00000847
 CPU time [hr]:     0.132                          Wall time [hr]:     0.051
 
 Iteration 11  CC energy:   -75.05163376          Energy decrease:   0.00000010
 Step      11  CC energy:   -75.051633755704231   Energy change  :   0.00000010
 ==============================================================================
 Norm of residual vector:     0.00000270
 CPU time [hr]:     0.142                          Wall time [hr]:     0.054
 
 Iteration 12  CC energy:   -75.05163378          Energy decrease:   0.00000002
 Step      12  CC energy:   -75.051633778285378   Energy change  :   0.00000002
 ==============================================================================
 Norm of residual vector:     0.00000096
 CPU time [hr]:     0.152                          Wall time [hr]:     0.058
 
 Iteration 13  CC energy:   -75.05163378          Energy decrease:   3.8281E-09
 Step      13  CC energy:   -75.051633782113512   Energy change  :   3.8281E-09
 ==============================================================================
 Norm of residual vector:     0.00000035
 CPU time [hr]:     0.163                          Wall time [hr]:     0.061
 
 Iteration 14  CC energy:   -75.05163378          Energy decrease:   4.8737E-09
 Step      14  CC energy:   -75.051633777239800   Energy change  :   4.8737E-09
 ==============================================================================
 Norm of residual vector:     0.00000012
 CPU time [hr]:     0.173                          Wall time [hr]:     0.065
 
 Iteration 15  CC energy:   -75.05163378          Energy decrease:   5.8904E-10
 Step      15  CC energy:   -75.051633777828840   Energy change  :   5.8904E-10
 ==============================================================================
 Norm of residual vector:     0.00000003
 CPU time [hr]:     0.183                          Wall time [hr]:     0.068
 
 Iteration 16  CC energy:   -75.05163378          Energy decrease:   6.2026E-10
 Step      16  CC energy:   -75.051633778449101   Energy change  :   6.2026E-10
 ==============================================================================
 Norm of residual vector:     0.00000001
 CPU time [hr]:     0.193                          Wall time [hr]:     0.071
 
 Iteration 17  CC energy:   -75.05163378          Energy decrease:   5.2253E-11
 Step      17  CC energy:   -75.051633778396848   Energy change  :   5.2253E-11
 ==============================================================================
 Norm of residual vector:     3.3514E-09
 CPU time [hr]:     0.204                          Wall time [hr]:     0.075
 
 Iteration 18  CC energy:   -75.05163378          Energy decrease:   1.4410E-11
 Step      18  CC energy:   -75.051633778382438   Energy change  :   1.4410E-11
 ==============================================================================
 Norm of residual vector:     1.0810E-09
 CPU time [hr]:     0.214                          Wall time [hr]:     0.078
 
 Iteration 19  CC energy:   -75.05163378          Energy decrease:   2.8848E-12
 Step      19  CC energy:   -75.051633778385323   Energy change  :   2.8848E-12
 ==============================================================================
 Norm of residual vector:     3.4567E-10
 CPU time [hr]:     0.224                          Wall time [hr]:     0.082
 
 Iteration 20  CC energy:   -75.05163378          Energy decrease:   3.4106E-13
 Step      20  CC energy:   -75.051633778384982   Energy change  :   3.4106E-13
 ==============================================================================
 Norm of residual vector:     1.0196E-10
 CPU time [hr]:     0.235                          Wall time [hr]:     0.085
 
 Iteration 21  CC energy:   -75.05163378          Energy decrease:   1.7053E-13
 Step      21  CC energy:   -75.051633778384812   Energy change  :   1.7053E-13
 ==============================================================================
 Norm of residual vector:     3.1745E-11
 CPU time [hr]:     0.245                          Wall time [hr]:     0.089
 
 Iteration 22  CC energy:   -75.05163378          Energy decrease:   5.8265E-13
 Step      22  CC energy:   -75.051633778384229   Energy change  :   5.8265E-13
 ==============================================================================
 
 Iteration has converged in 22 steps.
 
 Final results:
 Total CCSD energy [au]:                      -75.051633778384
 
 Perturbative corrections are calculated...
 ==============================================================================
 Spin case  1   Alpha:  0   Beta:  3
 Number of excitations:        5470
 ispcorr1 :                     0.000000000000000000
 ispcorr2 :                     0.000000000000000000
 corr1    :                     0.000000000000000000
 corr2    :                     0.000000000000000000
 CPU time [min]:    14.735                   Wall time [min]:     5.331
 ======================================================================
 Spin case  2   Alpha:  1   Beta:  2
 Number of excitations:        255015
 ispcorr1 :                     0.000000000000000000
 ispcorr2 :                     0.000000000000000000
 corr1    :                     0.000000000000000000
 corr2    :                     0.000000000000000000
 CPU time [min]:    14.805                   Wall time [min]:     5.348
 ======================================================================
 Spin case  3   Alpha:  2   Beta:  1
 Number of excitations:        509146
 ispcorr1 :                     0.000000000000000000
 ispcorr2 :                     0.000000000000000000
 corr1    :                     0.000000000000000000
 corr2    :                     0.000000000000000000
 CPU time [min]:    14.910                   Wall time [min]:     5.375
 ======================================================================
 Spin case  4   Alpha:  3   Beta:  0
 Number of excitations:        54504
 ispcorr1 :                     0.000000000000000000
 ispcorr2 :                     0.000000000000000000
 corr1    :                     0.000000000000000000
 corr2    :                     0.000000000000000000
 CPU time [min]:    14.932                   Wall time [min]:     5.380
 ======================================================================
 Spin case  5   Alpha:  0   Beta:  3
 Number of excitations:        17222
 ispcorr1 :                     0.000000000000000000
 ispcorr2 :                     0.000000000000000000
 corr1    :                     0.000000000000000000
 corr2    :                     0.000000000000000000
 CPU time [min]:    14.963                   Wall time [min]:     5.388
 ======================================================================
 Spin case  6   Alpha:  1   Beta:  2
 Number of excitations:        251353
 ispcorr1 :                     0.000000000000000000
 ispcorr2 :                     0.000000000000000000
 corr1    :                     0.000000000000000000
 corr2    :                     0.000000000000000000
 CPU time [min]:    15.040                   Wall time [min]:     5.407
 ======================================================================
 Spin case  7   Alpha:  1   Beta:  2
 Number of excitations:        529119
 ispcorr1 :                     0.000000000000000000
 ispcorr2 :                     0.000000000000000000
 corr1    :                     0.000000000000000000
 corr2    :                     0.000000000000000000
 CPU time [min]:    15.194                   Wall time [min]:     5.446
 ======================================================================
 Spin case  8   Alpha:  2   Beta:  1
 Number of excitations:        1020017
 ispcorr1 :                     0.000000000000000000
 ispcorr2 :                     0.000000000000000000
 corr1    :                     0.000000000000000000
 corr2    :                     0.000000000000000000
 CPU time [min]:    15.425                   Wall time [min]:     5.504
 ======================================================================
 Spin case  9   Alpha:  2   Beta:  1
 Number of excitations:        517422
 ispcorr1 :                     0.000000000000000000
 ispcorr2 :                     0.000000000000000000
 corr1    :                     0.000000000000000000
 corr2    :                     0.000000000000000000
 CPU time [min]:    15.540                   Wall time [min]:     5.533
 ======================================================================
 Spin case 10   Alpha:  3   Beta:  0
 Number of excitations:        165432
 ispcorr1 :                     0.000000000000000000
 ispcorr2 :                     0.000000000000000000
 corr1    :                     0.000000000000000000
 corr2    :                     0.000000000000000000
 CPU time [min]:    15.608                   Wall time [min]:     5.550
 ======================================================================
 Spin case 11   Alpha:  0   Beta:  3
 Number of excitations:        17659
 ispcorr1 :                     0.000000000000000000
 ispcorr2 :                     0.000000000000000000
 corr1    :                     0.000000000000000000
 corr2    :                     0.000000000000000000
 CPU time [min]:    15.640                   Wall time [min]:     5.558
 ======================================================================
 Spin case 12   Alpha:  1   Beta:  2
 Number of excitations:        521899
 ispcorr1 :                     0.000000000000000000
 ispcorr2 :                     0.000000000000000000
 corr1    :                     0.000000000000000000
 corr2    :                     0.000000000000000000
 CPU time [min]:    15.795                   Wall time [min]:     5.597
 ======================================================================
 Spin case 13   Alpha:  1   Beta:  2
 Number of excitations:        264573
 ispcorr1 :                     0.000000000000000000
 ispcorr2 :                     0.000000000000000000
 corr1    :                     0.000000000000000000
 corr2    :                     0.000000000000000000
 CPU time [min]:    15.876                   Wall time [min]:     5.617
 ======================================================================
 Spin case 14   Alpha:  2   Beta:  1
 Number of excitations:        493761
 ispcorr1 :                     0.000000000000000000
 ispcorr2 :                     0.000000000000000000
 corr1    :                     0.000000000000000000
 corr2    :                     0.000000000000000000
 CPU time [min]:    15.987                   Wall time [min]:     5.645
 ======================================================================
 Spin case 15   Alpha:  2   Beta:  1
 Number of excitations:        1036642
 ispcorr1 :                     0.000000000000000000
 ispcorr2 :                     0.000000000000000000
 corr1    :                     0.000000000000000000
 corr2    :                     0.000000000000000000
 CPU time [min]:    16.217                   Wall time [min]:     5.703
 ======================================================================
 Spin case 16   Alpha:  3   Beta:  0
 Number of excitations:        162783
 ispcorr1 :                     0.000000000000000000
 ispcorr2 :                     0.000000000000000000
 corr1    :                     0.000000000000000000
 corr2    :                     0.000000000000000000
 CPU time [min]:    16.282                   Wall time [min]:     5.719
 ======================================================================
 Spin case 17   Alpha:  0   Beta:  3
 Number of excitations:        5784
 ispcorr1 :                     0.000000000000000000
 ispcorr2 :                     0.000000000000000000
 corr1    :                     0.000000000000000000
 corr2    :                     0.000000000000000000
 CPU time [min]:    16.293                   Wall time [min]:     5.722
 ======================================================================
 Spin case 18   Alpha:  1   Beta:  2
 Number of excitations:        260902
 ispcorr1 :                     0.000000000000000000
 ispcorr2 :                     0.000000000000000000
 corr1    :                     0.000000000000000000
 corr2    :                     0.000000000000000000
 CPU time [min]:    16.365                   Wall time [min]:     5.740
 ======================================================================
 Spin case 19   Alpha:  2   Beta:  1
 Number of excitations:        501804
 ispcorr1 :                     0.000000000000000000
 ispcorr2 :                     0.000000000000000000
 corr1    :                     0.000000000000000000
 corr2    :                     0.000000000000000000
 CPU time [min]:    16.468                   Wall time [min]:     5.766
 ======================================================================
 Spin case 20   Alpha:  3   Beta:  0
 Number of excitations:        52033
 ispcorr1 :                     0.000000000000000000
 ispcorr2 :                     0.000000000000000000
 corr1    :                     0.000000000000000000
 corr2    :                     0.000000000000000000
 CPU time [min]:    16.488                   Wall time [min]:     5.771
 ======================================================================
 Number of 3-fold excitations: 6642540
 
 corr1 :                    -0.000000000073649339
 corr3 :                     0.000000000000000000
 corr4 :                     0.000000000000000000
 corr2 :                    -0.000000108179782039
 
 corr1 :                    -0.000000527801882494
 corr3 :                     0.000000000000000000
 corr4 :                     0.000000000000000000
 corr2 :                    -0.000389826648414818
 
 corr1 :                     0.000053949298016763
 corr3 :                     0.000000000000000000
 corr4 :                     0.000000000000000000
 corr2 :                    -0.001747739135891547
 
 corr1 :                     0.000065618416162807
 corr3 :                     0.000000000000000000
 corr4 :                     0.000000000000000000
 corr2 :                    -0.001862146563613776
 
 corr1 :                     0.000065701135889954
 corr3 :                     0.000000000000000000
 corr4 :                     0.000000000000000000
 corr2 :                    -0.001863109834508366
 
 corr1 :                     0.000071092856047372
 corr3 :                     0.000000000000000000
 corr4 :                     0.000000000000000000
 corr2 :                    -0.002016842180680125
 
 corr1 :                     0.000071067244237769
 corr3 :                     0.000000000000000000
 corr4 :                     0.000000000000000000
 corr2 :                    -0.002205697175072395
 
 corr1 :                     0.000070488249479802
 corr3 :                     0.000000000000000000
 corr4 :                     0.000000000000000000
 corr2 :                    -0.002868903721711828
 
 corr1 :                     0.000069986587003975
 corr3 :                     0.000000000000000000
 corr4 :                     0.000000000000000000
 corr2 :                    -0.003112095210323464
 
 corr1 :                     0.000068396577503201
 corr3 :                     0.000000000000000000
 corr4 :                     0.000000000000000000
 corr2 :                    -0.003168568840726030
 
 corr1 :                     0.000068563922452836
 corr3 :                     0.000000000000000000
 corr4 :                     0.000000000000000000
 corr2 :                    -0.003170204080113728
 
 corr1 :                     0.000076940379366321
 corr3 :                     0.000000000000000000
 corr4 :                     0.000000000000000000
 corr2 :                    -0.003330658830951633
 
 corr1 :                     0.000076153457144383
 corr3 :                     0.000000000000000000
 corr4 :                     0.000000000000000000
 corr2 :                    -0.003394055060690058
 
 corr1 :                     0.000083715714466567
 corr3 :                     0.000000000000000000
 corr4 :                     0.000000000000000000
 corr2 :                    -0.003655503887342469
 
 corr1 :                     0.000071759553214070
 corr3 :                     0.000000000000000000
 corr4 :                     0.000000000000000000
 corr2 :                    -0.004125294375840582
 
 corr1 :                     0.000068323692033713
 corr3 :                     0.000000000000000000
 corr4 :                     0.000000000000000000
 corr2 :                    -0.004197435876683270
 
 corr1 :                     0.000068338228294871
 corr3 :                     0.000000000000000000
 corr4 :                     0.000000000000000000
 corr2 :                    -0.004197687987276524
 
 corr1 :                     0.000069263315574059
 corr3 :                     0.000000000000000000
 corr4 :                     0.000000000000000000
 corr2 :                    -0.004231936802245446
 
 corr1 :                     0.000070640885903122
 corr3 :                     0.000000000000000000
 corr4 :                     0.000000000000000000
 corr2 :                    -0.004357669954442634
 
 corr1 :                     0.000070862990253768
 corr3 :                     0.000000000000000000
 corr4 :                     0.000000000000000000
 corr2 :                    -0.004368208205241858
 
 CPU time [min]:    16.497                   Wall time [min]:     5.773
 
 Total CCSD[T] energy [au]:                   -75.056001986589
 Total CCSD(T) energy [au]:                   -75.055931123599
 
 Dominant cluster amplitudes
 Printing threshold:  1.00E-02
 
    1.000000  Reference determinant                                     
   -0.010197  3a 3b -> 80a 77b                                          
   -0.010636  5a 2b -> 77a 8b                                           
   -0.010636  5a 2b -> 76a 7b                                           
    0.010636  4a 2b -> 77a 7b                                           
   -0.010636  4a 2b -> 76a 8b                                           
   -0.010388  3a 2b -> 78a 7b                                           
   -0.010388  3a 2b -> 79a 8b                                           
   -0.012696  2a 2b -> 34a 34b                                          
   -0.016853  3a 3b -> 55a 45b                                          
   -0.013124  3a 3b -> 53a 53b                                          
   -0.013124  3a 3b -> 54a 54b                                          
   -0.011030  3a 3b -> 17a 17b                                          
   -0.018130  3a 3b -> 33a 17b                                          
   -0.017405  3a 3b -> 17a 33b                                          
   -0.032041  3a 3b -> 33a 33b                                          
   -0.018658  3a 3b -> 58a 33b                                          
   -0.018100  3a 3b -> 33a 58b                                          
   -0.018535  3a 3b -> 58a 58b                                          
   -0.013051  4a 3b -> 32a 17b                                          
   -0.011933  4a 3b -> 15a 33b                                          
   -0.022488  4a 3b -> 32a 33b                                          
   -0.014085  4a 3b -> 57a 33b                                          
   -0.012990  4a 3b -> 32a 58b                                          
   -0.013145  4a 3b -> 57a 58b                                          
   -0.013051  5a 3b -> 31a 17b                                          
   -0.011933  5a 3b -> 16a 33b                                          
   -0.022488  5a 3b -> 31a 33b                                          
   -0.014085  5a 3b -> 56a 33b                                          
   -0.012990  5a 3b -> 31a 58b                                          
   -0.013145  5a 3b -> 56a 58b                                          
   -0.011577  5a 2b -> 26a 8b                                           
   -0.018623  5a 2b -> 45a 8b                                           
    0.010249  5a 2b -> 55a 8b                                           
    0.015120  5a 2b -> 45a 16b                                          
   -0.011577  5a 2b -> 27a 7b                                           
   -0.018623  5a 2b -> 44a 7b                                           
    0.015120  5a 2b -> 44a 15b                                          
   -0.010869  5a 2b -> 31a 18b                                          
    0.016072  5a 2b -> 31a 34b                                          
    0.011995  5a 2b -> 56a 34b                                          
    0.010378  5a 2b -> 56a 59b                                          
    0.011577  4a 2b -> 26a 7b                                           
    0.018623  4a 2b -> 45a 7b                                           
    0.010249  4a 2b -> 55a 7b                                           
   -0.015120  4a 2b -> 45a 15b                                          
   -0.011577  4a 2b -> 27a 8b                                           
   -0.018623  4a 2b -> 44a 8b                                           
    0.015120  4a 2b -> 44a 16b                                          
   -0.010869  4a 2b -> 32a 18b                                          
    0.016072  4a 2b -> 32a 34b                                          
    0.011995  4a 2b -> 57a 34b                                          
    0.010378  4a 2b -> 57a 59b                                          
   -0.011485  2a 3b -> 18a 33b                                          
    0.017187  2a 3b -> 34a 33b                                          
    0.011909  2a 3b -> 34a 58b                                          
    0.010602  2a 3b -> 59a 58b                                          
   -0.011278  3a 2b -> 29a 7b                                           
   -0.018119  3a 2b -> 53a 7b                                           
    0.014683  3a 2b -> 53a 15b                                          
   -0.011278  3a 2b -> 28a 8b                                           
   -0.018119  3a 2b -> 54a 8b                                           
    0.014683  3a 2b -> 54a 16b                                          
   -0.011447  3a 2b -> 33a 18b                                          
    0.016777  3a 2b -> 33a 34b                                          
    0.012080  3a 2b -> 58a 34b                                          
    0.010432  3a 2b -> 58a 59b                                          
    0.017039  3a 4a -> 32a 33a                                          
    0.011957  3a 4a -> 53a 55a                                          
   -0.011195  3a 4a -> 33a 57a                                          
    0.010646  3a 4a -> 32a 58a                                          
    0.010416  3a 4a -> 57a 58a                                          
    0.017039  3a 5a -> 31a 33a                                          
    0.011957  3a 5a -> 54a 55a                                          
   -0.011195  3a 5a -> 33a 56a                                          
    0.010646  3a 5a -> 31a 58a                                          
    0.010416  3a 5a -> 56a 58a                                          
    0.016616  4a 5a -> 31a 32a                                          
   -0.012928  4a 5a -> 44a 45a                                          
   -0.011117  4a 5a -> 32a 56a                                          
    0.011117  4a 5a -> 31a 57a                                          
    0.010791  4a 5a -> 56a 57a                                          

 ************************ 2026-05-04 09:41:45 *************************
 Executing goldstone...

 Generation of MRCC equations in terms of H and T...
 Generation of antisymmetrized Goldstone diagrams...
 Number of diagrams in T^1 equations:    15
 Number of diagrams in T^2 equations:    38
 Number of diagrams in T^3 equations:    50
 Number of diagrams in T^4 equations:     5
 Translation of diagrams to factorized equations...
 Number of restricted diagrams in T^1 equations:     78
 Number of restricted diagrams in T^2 equations:    344
 Number of restricted diagrams in T^3 equations:    830
 Number of restricted diagrams in T^4 equations:     86
 Optimizing intermediate calculation...
 Number of floating-point operations per iteration step:   2.7075E+12
 Probable CPU time per iteration step (hours):           27.07
 Required memory (Mbytes):         37325.0
 Number of intermediates:                                 534
 Number of intermediates to be stored:                    221
 Length of intermediate file (Mbytes):           965.3

 ************************ 2026-05-04 09:41:46 *************************
 Executing xmrcc...

 **********************************************************************
 MRCC(                     4 ) calculation 
 
 
 Allocation of       947200.0 Mbytes of memory...
 Number of spinorbitals:                   268
 Number of alpha electrons:                        5
 Number of beta electrons:                         3
 Number of active particles:                   130
 Number of active holes:                         0
 Spin multiplicity:                     2
 z-component of spin:  1.0
 Spatial symmetry:                      4
 Convergence criterion:  1.0E-10
 Construction of occupation graphs...
 Number of                     0 -fold excitations:                      1
 Number of                     1 -fold excitations:                    196
 Number of                     2 -fold excitations:                  48341
 Number of                     3 -fold excitations:                6642540
 Total number of configurations:                6691078
 Calculation of coupling coefficients...
 Length of intermediate file (Mbytes):           731.9
 
 ======================================================================
 
 Spin case  1   Alpha:  1   Beta:  3
 Number of excitations:                1772785
 Spin case  2   Alpha:  2   Beta:  2
 Number of excitations:               16228420
 Spin case  3   Alpha:  3   Beta:  1
 Number of excitations:               10643938
 Spin case  4   Alpha:  4   Beta:  0
 Number of excitations:                 424190
 Spin case  5   Alpha:  1   Beta:  3
 Number of excitations:                1745945
 Spin case  6   Alpha:  1   Beta:  3
 Number of excitations:                5578076
 Spin case  7   Alpha:  2   Beta:  2
 Number of excitations:               32465066
 Spin case  8   Alpha:  2   Beta:  2
 Number of excitations:               33482686
 Spin case  9   Alpha:  3   Beta:  1
 Number of excitations:               32414444
 Spin case 10   Alpha:  3   Beta:  1
 Number of excitations:               10807822
 Spin case 11   Alpha:  4   Beta:  0
 Number of excitations:                1744708
 Spin case 12   Alpha:  1   Beta:  3
 Number of excitations:                5495066
 Spin case 13   Alpha:  1   Beta:  3
 Number of excitations:                5671097
 Spin case 14   Alpha:  2   Beta:  2
 Number of excitations:               15732390
 Spin case 15   Alpha:  2   Beta:  2
 Number of excitations:               66993226
 Spin case 16   Alpha:  2   Beta:  2
 Number of excitations:               16741510
 Spin case 17   Alpha:  3   Beta:  1
 Number of excitations:               31905591
 Spin case 18   Alpha:  3   Beta:  1
 Number of excitations:               32908764
 Spin case 19   Alpha:  4   Beta:  0
 Number of excitations:                2612544
 Spin case 20   Alpha:  1   Beta:  3
 Number of excitations:                5587121
 Spin case 21   Alpha:  1   Beta:  3
 Number of excitations:                1861022
 Spin case 22   Alpha:  2   Beta:  2
 Number of excitations:               32461788
 Spin case 23   Alpha:  2   Beta:  2
 Number of excitations:               33496519
 Spin case 24   Alpha:  3   Beta:  1
 Number of excitations:               10151711
 Spin case 25   Alpha:  3   Beta:  1
 Number of excitations:               32391264
 Spin case 26   Alpha:  4   Beta:  0
 Number of excitations:                1690400
 Spin case 27   Alpha:  1   Beta:  3
 Number of excitations:                1832794
 Spin case 28   Alpha:  2   Beta:  2
 Number of excitations:               16230963
 Spin case 29   Alpha:  3   Beta:  1
 Number of excitations:               10307706
 Spin case 30   Alpha:  4   Beta:  0
 Number of excitations:                 398258
 Number of                     4 -fold excitations:              471777814
 
 Memory requirements /Mbyte/: 
               Minimal        Optimal
 Real*8:       1135.6663      2460.4098
 Integer:      4095.3633
 Total:        5231.0296      6555.7731
 

 ************************ 2026-05-04 09:44:25 *************************
 Executing mrcc...

 **********************************************************************
 CCSDT(Q) calculation                                                   
 
 
 OpenMP parallel version is running.
 Number of CPU cores:   4
 Allocation of         2460.4 Mbytes of memory...
 Number of spinorbitals: 268
 Number of alpha electrons:  5
 Number of beta  electrons:  3
 Number of active particles:                   130
 Number of active holes:                         0
 Spin multiplicity: 3
 z-component of spin:  1.0
 Spatial symmetry: 4
 Convergence criterion:  1.0E-10
 Construction of occupation graphs...
 Number of 0-fold excitations: 1
 Number of 1-fold excitations: 196
 Number of 2-fold excitations: 48341
 Number of 3-fold excitations: 6642540
 Total number of determinants: 6691078
 Calculation of coupling coefficients...
 Initial cluster amplitudes are read from unit 16.
 Length of intermediate file (Mbytes):     731.9
 Reading integral list from unit 55...
 Sorting integrals...
 Sorting integrals...
 Sorting integrals...
 Sorting integrals...
 Energy of reference determinant [au]:     -74.817662618929
 Calculation of MP denominators...
 
 Starting CC iteration...
 ==============================================================================
 Norm of residual vector:     0.27265809
 CPU time [hr]:     0.249                          Wall time [hr]:     0.074
 
 Iteration  1  CC energy:   -75.05163378          Energy decrease:   1.4211E-13
 Step       1  CC energy:   -75.051633778384087   Energy change  :   1.4211E-13
 ==============================================================================
 Norm of residual vector:     0.03513422
 CPU time [hr]:     0.321                          Wall time [hr]:     0.094
 
 Iteration  2  CC energy:   -75.05522188          Energy decrease:   0.00358810
 Step       2  CC energy:   -75.055221877931913   Energy change  :   0.00358810
 ==============================================================================
 Norm of residual vector:     0.01250170
 CPU time [hr]:     0.393                          Wall time [hr]:     0.114
 
 Iteration  3  CC energy:   -75.05603777          Energy decrease:   0.00081590
 Step       3  CC energy:   -75.056037773611763   Energy change  :   0.00081590
 ==============================================================================
 Norm of residual vector:     0.00359555
 CPU time [hr]:     0.465                          Wall time [hr]:     0.134
 
 Iteration  4  CC energy:   -75.05617266          Energy decrease:   0.00013489
 Step       4  CC energy:   -75.056172662466452   Energy change  :   0.00013489
 ==============================================================================
 Norm of residual vector:     0.00168926
 CPU time [hr]:     0.538                          Wall time [hr]:     0.155
 
 Iteration  5  CC energy:   -75.05622815          Energy decrease:   0.00005549
 Step       5  CC energy:   -75.056228148319946   Energy change  :   0.00005549
 ==============================================================================
 Norm of residual vector:     0.00086736
 CPU time [hr]:     0.610                          Wall time [hr]:     0.175
 
 Iteration  6  CC energy:   -75.05624271          Energy decrease:   0.00001456
 Step       6  CC energy:   -75.056242712771549   Energy change  :   0.00001456
 ==============================================================================
 Norm of residual vector:     0.00045481
 CPU time [hr]:     0.684                          Wall time [hr]:     0.196
 
 Iteration  7  CC energy:   -75.05624169          Energy decrease:   0.00000102
 Step       7  CC energy:   -75.056241689625594   Energy change  :   0.00000102
 ==============================================================================
 Norm of residual vector:     0.00018598
 CPU time [hr]:     0.757                          Wall time [hr]:     0.217
 
 Iteration  8  CC energy:   -75.05624294          Energy decrease:   0.00000125
 Step       8  CC energy:   -75.056242940940990   Energy change  :   0.00000125
 ==============================================================================
 Norm of residual vector:     0.00008053
 CPU time [hr]:     0.830                          Wall time [hr]:     0.237
 
 Iteration  9  CC energy:   -75.05624355          Energy decrease:   0.00000061
 Step       9  CC energy:   -75.056243552413875   Energy change  :   0.00000061
 ==============================================================================
 Norm of residual vector:     0.00003523
 CPU time [hr]:     0.903                          Wall time [hr]:     0.257
 
 Iteration 10  CC energy:   -75.05624312          Energy decrease:   0.00000043
 Step      10  CC energy:   -75.056243124792786   Energy change  :   0.00000043
 ==============================================================================
 Norm of residual vector:     0.00001655
 CPU time [hr]:     0.978                          Wall time [hr]:     0.278
 
 Iteration 11  CC energy:   -75.05624294          Energy decrease:   0.00000018
 Step      11  CC energy:   -75.056242944736510   Energy change  :   0.00000018
 ==============================================================================
 Norm of residual vector:     0.00000793
 CPU time [hr]:     1.053                          Wall time [hr]:     0.299
 
 Iteration 12  CC energy:   -75.05624300          Energy decrease:   0.00000006
 Step      12  CC energy:   -75.056243004664765   Energy change  :   0.00000006
 ==============================================================================
 Norm of residual vector:     0.00000338
 CPU time [hr]:     1.129                          Wall time [hr]:     0.320
 
 Iteration 13  CC energy:   -75.05624302          Energy decrease:   0.00000002
 Step      13  CC energy:   -75.056243024187239   Energy change  :   0.00000002
 ==============================================================================
 Norm of residual vector:     0.00000156
 CPU time [hr]:     1.204                          Wall time [hr]:     0.342
 
 Iteration 14  CC energy:   -75.05624301          Energy decrease:   0.00000002
 Step      14  CC energy:   -75.056243008006888   Energy change  :   0.00000002
 ==============================================================================
 Norm of residual vector:     0.00000076
 CPU time [hr]:     1.280                          Wall time [hr]:     0.363
 
 Iteration 15  CC energy:   -75.05624300          Energy decrease:   0.00000001
 Step      15  CC energy:   -75.056243002829945   Energy change  :   0.00000001
 ==============================================================================
 Norm of residual vector:     0.00000036
 CPU time [hr]:     1.357                          Wall time [hr]:     0.384
 
 Iteration 16  CC energy:   -75.05624301          Energy decrease:   3.4728E-09
 Step      16  CC energy:   -75.056243006302736   Energy change  :   3.4728E-09
 ==============================================================================
 Norm of residual vector:     0.00000014
 CPU time [hr]:     1.433                          Wall time [hr]:     0.406
 
 Iteration 17  CC energy:   -75.05624301          Energy decrease:   2.0329E-09
 Step      17  CC energy:   -75.056243008335628   Energy change  :   2.0329E-09
 ==============================================================================
 Norm of residual vector:     0.00000006
 CPU time [hr]:     1.509                          Wall time [hr]:     0.427
 
 Iteration 18  CC energy:   -75.05624301          Energy decrease:   2.3672E-10
 Step      18  CC energy:   -75.056243008572352   Energy change  :   2.3672E-10
 ==============================================================================
 Norm of residual vector:     0.00000002
 CPU time [hr]:     1.586                          Wall time [hr]:     0.448
 
 Iteration 19  CC energy:   -75.05624301          Energy decrease:   1.2339E-10
 Step      19  CC energy:   -75.056243008448959   Energy change  :   1.2339E-10
 ==============================================================================
 Norm of residual vector:     0.00000001
 CPU time [hr]:     1.663                          Wall time [hr]:     0.470
 
 Iteration 20  CC energy:   -75.05624301          Energy decrease:   7.6383E-11
 Step      20  CC energy:   -75.056243008372576   Energy change  :   7.6383E-11
 ==============================================================================
 Norm of residual vector:     4.3085E-09
 CPU time [hr]:     1.749                          Wall time [hr]:     0.494
 
 Iteration 21  CC energy:   -75.05624301          Energy decrease:   2.6674E-11
 Step      21  CC energy:   -75.056243008345902   Energy change  :   2.6674E-11
 ==============================================================================
 Norm of residual vector:     1.7497E-09
 CPU time [hr]:     1.827                          Wall time [hr]:     0.515
 
 Iteration 22  CC energy:   -75.05624301          Energy decrease:   2.0179E-12
 Step      22  CC energy:   -75.056243008347920   Energy change  :   2.0179E-12
 ==============================================================================
 Norm of residual vector:     7.4803E-10
 CPU time [hr]:     1.906                          Wall time [hr]:     0.537
 
 Iteration 23  CC energy:   -75.05624301          Energy decrease:   6.4801E-12
 Step      23  CC energy:   -75.056243008341440   Energy change  :   6.4801E-12
 ==============================================================================
 Norm of residual vector:     3.0328E-10
 CPU time [hr]:     1.985                          Wall time [hr]:     0.559
 
 Iteration 24  CC energy:   -75.05624301          Energy decrease:   1.1795E-12
 Step      24  CC energy:   -75.056243008342619   Energy change  :   1.1795E-12
 ==============================================================================
 Norm of residual vector:     1.2872E-10
 CPU time [hr]:     2.064                          Wall time [hr]:     0.581
 
 Iteration 25  CC energy:   -75.05624301          Energy decrease:   3.1264E-13
 Step      25  CC energy:   -75.056243008342307   Energy change  :   3.1264E-13
 ==============================================================================
 Norm of residual vector:     5.2343E-11
 CPU time [hr]:     2.143                          Wall time [hr]:     0.603
 
 Iteration 26  CC energy:   -75.05624301          Energy decrease:   3.8369E-13
 Step      26  CC energy:   -75.056243008341923   Energy change  :   3.8369E-13
 ==============================================================================
 
 Iteration has converged in 26 steps.
 
 Final results:
 Total CCSDT energy [au]:                     -75.056243008342
 
 Perturbative corrections are calculated...
 ==============================================================================
 Spin case  1   Alpha:  1   Beta:  3
 Number of excitations:        1772785
 ispcorr1 :                     0.000000000000000000
 ispcorr2 :                     0.000000000000000000
 corr1    :                     0.000000000000000000
 corr2    :                     0.000000000000000000
 CPU time [min]:   137.751                   Wall time [min]:    38.674
 ======================================================================
 Spin case  2   Alpha:  2   Beta:  2
 Number of excitations:        16228420
 ispcorr1 :                     0.000000000000000000
 ispcorr2 :                     0.000000000000000000
 corr1    :                     0.000000000000000000
 corr2    :                     0.000000000000000000
 CPU time [min]:   163.151                   Wall time [min]:    45.227
 ======================================================================
 Spin case  3   Alpha:  3   Beta:  1
 Number of excitations:        10643938
 ispcorr1 :                     0.000000000000000000
 ispcorr2 :                     0.000000000000000000
 corr1    :                     0.000000000000000000
 corr2    :                     0.000000000000000000
 CPU time [min]:   179.748                   Wall time [min]:    49.486
 ======================================================================
 Spin case  4   Alpha:  4   Beta:  0
 Number of excitations:        424190
 ispcorr1 :                     0.000000000000000000
 ispcorr2 :                     0.000000000000000000
 corr1    :                     0.000000000000000000
 corr2    :                     0.000000000000000000
 CPU time [min]:   181.384                   Wall time [min]:    49.903
 ======================================================================
 Spin case  5   Alpha:  1   Beta:  3
 Number of excitations:        1745945
 ispcorr1 :                     0.000000000000000000
 ispcorr2 :                     0.000000000000000000
 corr1    :                     0.000000000000000000
 corr2    :                     0.000000000000000000
 CPU time [min]:   188.859                   Wall time [min]:    51.825
 ======================================================================
 Spin case  6   Alpha:  1   Beta:  3
 Number of excitations:        5578076
 ispcorr1 :                     0.000000000000000000
 ispcorr2 :                     0.000000000000000000
 corr1    :                     0.000000000000000000
 corr2    :                     0.000000000000000000
 CPU time [min]:   215.669                   Wall time [min]:    58.626
 ======================================================================
 Spin case  7   Alpha:  2   Beta:  2
 Number of excitations:        32465066
 ispcorr1 :                     0.000000000000000000
 ispcorr2 :                     0.000000000000000000
 corr1    :                     0.000000000000000000
 corr2    :                     0.000000000000000000
 CPU time [min]:   265.152                   Wall time [min]:    71.339
 ======================================================================
 Spin case  8   Alpha:  2   Beta:  2
 Number of excitations:        33482686
 ispcorr1 :                     0.000000000000000000
 ispcorr2 :                     0.000000000000000000
 corr1    :                     0.000000000000000000
 corr2    :                     0.000000000000000000
 CPU time [min]:   317.757                   Wall time [min]:    85.172
 ======================================================================
 Spin case  9   Alpha:  3   Beta:  1
 Number of excitations:        32414444
 ispcorr1 :                     0.000000000000000000
 ispcorr2 :                     0.000000000000000000
 corr1    :                     0.000000000000000000
 corr2    :                     0.000000000000000000
 CPU time [min]:   368.895                   Wall time [min]:    98.315
 ======================================================================
 Spin case 10   Alpha:  3   Beta:  1
 Number of excitations:        10807822
 ispcorr1 :                     0.000000000000000000
 ispcorr2 :                     0.000000000000000000
 corr1    :                     0.000000000000000000
 corr2    :                     0.000000000000000000
 CPU time [min]:   385.004                   Wall time [min]:   102.622
 ======================================================================
 Spin case 11   Alpha:  4   Beta:  0
 Number of excitations:        1744708
 ispcorr1 :                     0.000000000000000000
 ispcorr2 :                     0.000000000000000000
 corr1    :                     0.000000000000000000
 corr2    :                     0.000000000000000000
 CPU time [min]:   392.234                   Wall time [min]:   104.474
 ======================================================================
 Spin case 12   Alpha:  1   Beta:  3
 Number of excitations:        5495066
 ispcorr1 :                     0.000000000000000000
 ispcorr2 :                     0.000000000000000000
 corr1    :                     0.000000000000000000
 corr2    :                     0.000000000000000000
 CPU time [min]:   418.210                   Wall time [min]:   111.126
 ======================================================================
 Spin case 13   Alpha:  1   Beta:  3
 Number of excitations:        5671097
 ispcorr1 :                     0.000000000000000000
 ispcorr2 :                     0.000000000000000000
 corr1    :                     0.000000000000000000
 corr2    :                     0.000000000000000000
 CPU time [min]:   444.042                   Wall time [min]:   117.700
 ======================================================================
 Spin case 14   Alpha:  2   Beta:  2
 Number of excitations:        15732390
 ispcorr1 :                     0.000000000000000000
 ispcorr2 :                     0.000000000000000000
 corr1    :                     0.000000000000000000
 corr2    :                     0.000000000000000000
 CPU time [min]:   466.578                   Wall time [min]:   123.564
 ======================================================================
 Spin case 15   Alpha:  2   Beta:  2
 Number of excitations:        66993226
 ispcorr1 :                     0.000000000000000000
 ispcorr2 :                     0.000000000000000000
 corr1    :                     0.000000000000000000
 corr2    :                     0.000000000000000000
 CPU time [min]:   575.749                   Wall time [min]:   152.345
 ======================================================================
 Spin case 16   Alpha:  2   Beta:  2
 Number of excitations:        16741510
 ispcorr1 :                     0.000000000000000000
 ispcorr2 :                     0.000000000000000000
 corr1    :                     0.000000000000000000
 corr2    :                     0.000000000000000000
 CPU time [min]:   599.402                   Wall time [min]:   158.503
 ======================================================================
 Spin case 17   Alpha:  3   Beta:  1
 Number of excitations:        31905591
 ispcorr1 :                     0.000000000000000000
 ispcorr2 :                     0.000000000000000000
 corr1    :                     0.000000000000000000
 corr2    :                     0.000000000000000000
 CPU time [min]:   650.089                   Wall time [min]:   171.543
 ======================================================================
 Spin case 18   Alpha:  3   Beta:  1
 Number of excitations:        32908764
 ispcorr1 :                     0.000000000000000000
 ispcorr2 :                     0.000000000000000000
 corr1    :                     0.000000000000000000
 corr2    :                     0.000000000000000000
 CPU time [min]:   703.619                   Wall time [min]:   185.411
 ======================================================================
 Spin case 19   Alpha:  4   Beta:  0
 Number of excitations:        2612544
 ispcorr1 :                     0.000000000000000000
 ispcorr2 :                     0.000000000000000000
 corr1    :                     0.000000000000000000
 corr2    :                     0.000000000000000000
 CPU time [min]:   714.826                   Wall time [min]:   188.346
 ======================================================================
 Spin case 20   Alpha:  1   Beta:  3
 Number of excitations:        5587121
 ispcorr1 :                     0.000000000000000000
 ispcorr2 :                     0.000000000000000000
 corr1    :                     0.000000000000000000
 corr2    :                     0.000000000000000000
 CPU time [min]:   742.179                   Wall time [min]:   195.344
 ======================================================================
 Spin case 21   Alpha:  1   Beta:  3
 Number of excitations:        1861022
 ispcorr1 :                     0.000000000000000000
 ispcorr2 :                     0.000000000000000000
 corr1    :                     0.000000000000000000
 corr2    :                     0.000000000000000000
 CPU time [min]:   750.080                   Wall time [min]:   197.376
 ======================================================================
 Spin case 22   Alpha:  2   Beta:  2
 Number of excitations:        32461788
 ispcorr1 :                     0.000000000000000000
 ispcorr2 :                     0.000000000000000000
 corr1    :                     0.000000000000000000
 corr2    :                     0.000000000000000000
 CPU time [min]:   801.737                   Wall time [min]:   210.752
 ======================================================================
 Spin case 23   Alpha:  2   Beta:  2
 Number of excitations:        33496519
 ispcorr1 :                     0.000000000000000000
 ispcorr2 :                     0.000000000000000000
 corr1    :                     0.000000000000000000
 corr2    :                     0.000000000000000000
 CPU time [min]:   854.382                   Wall time [min]:   224.523
 ======================================================================
 Spin case 24   Alpha:  3   Beta:  1
 Number of excitations:        10151711
 ispcorr1 :                     0.000000000000000000
 ispcorr2 :                     0.000000000000000000
 corr1    :                     0.000000000000000000
 corr2    :                     0.000000000000000000
 CPU time [min]:   870.191                   Wall time [min]:   228.598
 ======================================================================
 Spin case 25   Alpha:  3   Beta:  1
 Number of excitations:        32391264
 ispcorr1 :                     0.000000000000000000
 ispcorr2 :                     0.000000000000000000
 corr1    :                     0.000000000000000000
 corr2    :                     0.000000000000000000
 CPU time [min]:   924.397                   Wall time [min]:   242.622
 ======================================================================
 Spin case 26   Alpha:  4   Beta:  0
 Number of excitations:        1690400
 ispcorr1 :                     0.000000000000000000
 ispcorr2 :                     0.000000000000000000
 corr1    :                     0.000000000000000000
 corr2    :                     0.000000000000000000
 CPU time [min]:   931.833                   Wall time [min]:   244.556
 ======================================================================
 Spin case 27   Alpha:  1   Beta:  3
 Number of excitations:        1832794
 ispcorr1 :                     0.000000000000000000
 ispcorr2 :                     0.000000000000000000
 corr1    :                     0.000000000000000000
 corr2    :                     0.000000000000000000
 CPU time [min]:   941.420                   Wall time [min]:   247.120
 ======================================================================
 Spin case 28   Alpha:  2   Beta:  2
 Number of excitations:        16230963
 ispcorr1 :                     0.000000000000000000
 ispcorr2 :                     0.000000000000000000
 corr1    :                     0.000000000000000000
 corr2    :                     0.000000000000000000
 CPU time [min]:   967.732                   Wall time [min]:   254.013
 ======================================================================
 Spin case 29   Alpha:  3   Beta:  1
 Number of excitations:        10307706
 ispcorr1 :                     0.000000000000000000
 ispcorr2 :                     0.000000000000000000
 corr1    :                     0.000000000000000000
 corr2    :                     0.000000000000000000
 CPU time [min]:   984.278                   Wall time [min]:   258.260
 ======================================================================
 Spin case 30   Alpha:  4   Beta:  0
 Number of excitations:        398258
 ispcorr1 :                     0.000000000000000000
 ispcorr2 :                     0.000000000000000000
 corr1    :                     0.000000000000000000
 corr2    :                     0.000000000000000000
 CPU time [min]:   985.948                   Wall time [min]:   258.695
 ======================================================================
 Number of 4-fold excitations: 471777814
 
 T_2^+ contribution [au]:                                  -0.000000104671817637
 corr1 :                    -0.000000104671817637
 corr3 :                     0.000000000000000000
 corr4 :                     0.000000000000000000
 T_3^+ contribution [au]:                                  -0.000000023087549605
 T_1^+ * T_2^+ contribution [au]:                          -0.000000001094865898
 T_1^+ * <ab||ij> contribution [au]:                       -0.000000000230923284
 T_2^+ * f_ai contribution [au]:                            0.000000000000000000
 corr2 :                    -0.000000023087549605
 corr3 :                    -0.000000001094865898
 corr4 :                    -0.000000000230923284
 
 T_2^+ contribution [au]:                                   0.000031939397584091
 corr1 :                     0.000031939397584091
 corr3 :                    -0.000000001094865898
 corr4 :                    -0.000000000230923284
 T_3^+ contribution [au]:                                  -0.000029567456885207
 T_1^+ * T_2^+ contribution [au]:                           0.000001626131677392
 T_1^+ * <ab||ij> contribution [au]:                        0.000001097946069320
 T_2^+ * f_ai contribution [au]:                            0.000000000000000014
 corr2 :                    -0.000029567456885207
 corr3 :                     0.000001625036811494
 corr4 :                     0.000001097715146050
 
 T_2^+ contribution [au]:                                   0.000059055556353634
 corr1 :                     0.000059055556353634
 corr3 :                     0.000001625036811494
 corr4 :                     0.000001097715146050
 T_3^+ contribution [au]:                                  -0.000059188541942062
 T_1^+ * T_2^+ contribution [au]:                           0.000005114299331108
 T_1^+ * <ab||ij> contribution [au]:                        0.000003164116343554
 T_2^+ * f_ai contribution [au]:                           -0.000000000000000005
 corr2 :                    -0.000059188541942062
 corr3 :                     0.000006739336142601
 corr4 :                     0.000004261831489599
 
 T_2^+ contribution [au]:                                   0.000059925573850897
 corr1 :                     0.000059925573850897
 corr3 :                     0.000006739336142601
 corr4 :                     0.000004261831489599
 T_3^+ contribution [au]:                                  -0.000059883952499466
 T_1^+ * T_2^+ contribution [au]:                           0.000005265767262796
 T_1^+ * <ab||ij> contribution [au]:                        0.000003253219258539
 T_2^+ * f_ai contribution [au]:                           -0.000000000000000006
 corr2 :                    -0.000059883952499466
 corr3 :                     0.000012005103405397
 corr4 :                     0.000007515050748131
 
 T_2^+ contribution [au]:                                   0.000059869112926057
 corr1 :                     0.000059869112926057
 corr3 :                     0.000012005103405397
 corr4 :                     0.000007515050748131
 T_3^+ contribution [au]:                                  -0.000059909825037818
 T_1^+ * T_2^+ contribution [au]:                           0.000005267016249393
 T_1^+ * <ab||ij> contribution [au]:                        0.000003254229570901
 T_2^+ * f_ai contribution [au]:                           -0.000000000000000006
 corr2 :                    -0.000059909825037818
 corr3 :                     0.000017272119654790
 corr4 :                     0.000010769280319026
 
 T_2^+ contribution [au]:                                   0.000059427253212651
 corr1 :                     0.000059427253212651
 corr3 :                     0.000017272119654790
 corr4 :                     0.000010769280319026
 T_3^+ contribution [au]:                                  -0.000060020546875855
 T_1^+ * T_2^+ contribution [au]:                           0.000005263076782946
 T_1^+ * <ab||ij> contribution [au]:                        0.000003253830221955
 T_2^+ * f_ai contribution [au]:                           -0.000000000000000006
 corr2 :                    -0.000060020546875855
 corr3 :                     0.000022535196437736
 corr4 :                     0.000014023110540974
 
 T_2^+ contribution [au]:                                   0.000041306479909602
 corr1 :                     0.000041306479909602
 corr3 :                     0.000022535196437736
 corr4 :                     0.000014023110540974
 T_3^+ contribution [au]:                                  -0.000066084077949802
 T_1^+ * T_2^+ contribution [au]:                           0.000005363995145583
 T_1^+ * <ab||ij> contribution [au]:                        0.000003351755169068
 T_2^+ * f_ai contribution [au]:                           -0.000000000000000007
 corr2 :                    -0.000066084077949802
 corr3 :                     0.000027899191583319
 corr4 :                     0.000017374865710036
 
 T_2^+ contribution [au]:                                   0.000038007126034860
 corr1 :                     0.000038007126034860
 corr3 :                     0.000027899191583319
 corr4 :                     0.000017374865710036
 T_3^+ contribution [au]:                                  -0.000070799526013474
 T_1^+ * T_2^+ contribution [au]:                           0.000005429428343189
 T_1^+ * <ab||ij> contribution [au]:                        0.000003412111483488
 T_2^+ * f_ai contribution [au]:                           -0.000000000000000005
 corr2 :                    -0.000070799526013474
 corr3 :                     0.000033328619926508
 corr4 :                     0.000020786977193519
 
 T_2^+ contribution [au]:                                   0.000021487543360533
 corr1 :                     0.000021487543360533
 corr3 :                     0.000033328619926508
 corr4 :                     0.000020786977193519
 T_3^+ contribution [au]:                                  -0.000076340959054151
 T_1^+ * T_2^+ contribution [au]:                           0.000005623022694773
 T_1^+ * <ab||ij> contribution [au]:                        0.000003542319693242
 T_2^+ * f_ai contribution [au]:                           -0.000000000000000007
 corr2 :                    -0.000076340959054151
 corr3 :                     0.000038951642621281
 corr4 :                     0.000024329296886754
 
 T_2^+ contribution [au]:                                   0.000019037649898965
 corr1 :                     0.000019037649898965
 corr3 :                     0.000038951642621281
 corr4 :                     0.000024329296886754
 T_3^+ contribution [au]:                                  -0.000078330782633803
 T_1^+ * T_2^+ contribution [au]:                           0.000005727410717816
 T_1^+ * <ab||ij> contribution [au]:                        0.000003611725715717
 T_2^+ * f_ai contribution [au]:                           -0.000000000000000007
 corr2 :                    -0.000078330782633803
 corr3 :                     0.000044679053339097
 corr4 :                     0.000027941022602464
 
 T_2^+ contribution [au]:                                   0.000018445060644947
 corr1 :                     0.000018445060644947
 corr3 :                     0.000044679053339097
 corr4 :                     0.000027941022602464
 T_3^+ contribution [au]:                                  -0.000078439681179612
 T_1^+ * T_2^+ contribution [au]:                           0.000005738396318894
 T_1^+ * <ab||ij> contribution [au]:                        0.000003619037869213
 T_2^+ * f_ai contribution [au]:                           -0.000000000000000007
 corr2 :                    -0.000078439681179612
 corr3 :                     0.000050417449657990
 corr4 :                     0.000031560060471670
 
 T_2^+ contribution [au]:                                   0.000018307107113911
 corr1 :                     0.000018307107113911
 corr3 :                     0.000050417449657990
 corr4 :                     0.000031560060471670
 T_3^+ contribution [au]:                                  -0.000078563488235925
 T_1^+ * T_2^+ contribution [au]:                           0.000005745418667909
 T_1^+ * <ab||ij> contribution [au]:                        0.000003624310621817
 T_2^+ * f_ai contribution [au]:                           -0.000000000000000007
 corr2 :                    -0.000078563488235925
 corr3 :                     0.000056162868325900
 corr4 :                     0.000035184371093481
 
 T_2^+ contribution [au]:                                   0.000017803872415768
 corr1 :                     0.000017803872415768
 corr3 :                     0.000056162868325900
 corr4 :                     0.000035184371093481
[...]
 T_3^+ contribution [au]:                                  -0.000099138431207979
 T_1^+ * T_2^+ contribution [au]:                           0.000006199440716181
 T_1^+ * <ab||ij> contribution [au]:                        0.000003884630557876
 T_2^+ * f_ai contribution [au]:                           -0.000000000000000008
 corr2 :                    -0.000099138431207979
 corr3 :                     0.000122340549863083
 corr4 :                     0.000076843579261992
 
 T_2^+ contribution [au]:                                   0.000003016651685326
 corr1 :                     0.000003016651685326
 corr3 :                     0.000122340549863083
 corr4 :                     0.000076843579261992
 T_3^+ contribution [au]:                                  -0.000099981757865586
 T_1^+ * T_2^+ contribution [au]:                           0.000006227540900279
 T_1^+ * <ab||ij> contribution [au]:                        0.000003902872712346
 T_2^+ * f_ai contribution [au]:                           -0.000000000000000008
 corr2 :                    -0.000099981757865586
 corr3 :                     0.000128568090763363
 corr4 :                     0.000080746451974330
 
 T_2^+ contribution [au]:                                   0.000004243540640341
 corr1 :                     0.000004243540640341
 corr3 :                     0.000128568090763363
 corr4 :                     0.000080746451974330
 T_3^+ contribution [au]:                                  -0.000102267805339712
 T_1^+ * T_2^+ contribution [au]:                           0.000006197125935908
 T_1^+ * <ab||ij> contribution [au]:                        0.000003857198346508
 T_2^+ * f_ai contribution [au]:                           -0.000000000000000007
 corr2 :                    -0.000102267805339712
 corr3 :                     0.000134765216699271
 corr4 :                     0.000084603650320830
 
 T_2^+ contribution [au]:                                   0.000004381272623514
 corr1 :                     0.000004381272623514
 corr3 :                     0.000134765216699271
 corr4 :                     0.000084603650320830
 T_3^+ contribution [au]:                                  -0.000102345481187541
 T_1^+ * T_2^+ contribution [au]:                           0.000006196051318685
 T_1^+ * <ab||ij> contribution [au]:                        0.000003854865339833
 T_2^+ * f_ai contribution [au]:                           -0.000000000000000007
 corr2 :                    -0.000102345481187541
 corr3 :                     0.000140961268017956
 corr4 :                     0.000088458515660656
 
 T_2^+ contribution [au]:                                   0.000004422984964573
 corr1 :                     0.000004422984964573
 corr3 :                     0.000140961268017956
 corr4 :                     0.000088458515660656
 T_3^+ contribution [au]:                                  -0.000102361280918430
 T_1^+ * T_2^+ contribution [au]:                           0.000006197075364607
 T_1^+ * <ab||ij> contribution [au]:                        0.000003855621284249
 T_2^+ * f_ai contribution [au]:                           -0.000000000000000007
 corr2 :                    -0.000102361280918430
 corr3 :                     0.000147158343382562
 corr4 :                     0.000092314136944898
 
 T_2^+ contribution [au]:                                   0.000005629776534812
 corr1 :                     0.000005629776534812
 corr3 :                     0.000147158343382562
 corr4 :                     0.000092314136944898
 T_3^+ contribution [au]:                                  -0.000102840576263915
 T_1^+ * T_2^+ contribution [au]:                           0.000006214979821688
 T_1^+ * <ab||ij> contribution [au]:                        0.000003868051264491
 T_2^+ * f_ai contribution [au]:                           -0.000000000000000007
 corr2 :                    -0.000102840576263915
 corr3 :                     0.000153373323204250
 corr4 :                     0.000096182188209381
 
 T_2^+ contribution [au]:                                   0.000006809978515239
 corr1 :                     0.000006809978515239
 corr3 :                     0.000153373323204250
 corr4 :                     0.000096182188209381
 T_3^+ contribution [au]:                                  -0.000103283434260024
 T_1^+ * T_2^+ contribution [au]:                           0.000006223724834232
 T_1^+ * <ab||ij> contribution [au]:                        0.000003873627341839
 T_2^+ * f_ai contribution [au]:                           -0.000000000000000007
 corr2 :                    -0.000103283434260024
 corr3 :                     0.000159597048038482
 corr4 :                     0.000100055815551213
 
 T_2^+ contribution [au]:                                   0.000006869490166743
 corr1 :                     0.000006869490166743
 corr3 :                     0.000159597048038482
 corr4 :                     0.000100055815551213
 T_3^+ contribution [au]:                                  -0.000103294527167302
 T_1^+ * T_2^+ contribution [au]:                           0.000006224011455067
 T_1^+ * <ab||ij> contribution [au]:                        0.000003873762043851
 T_2^+ * f_ai contribution [au]:                           -0.000000000000000007
 corr2 :                    -0.000103294527167302
 corr3 :                     0.000165821059493549
 corr4 :                     0.000103929577595056
 
 CPU time [min]:   997.831                   Wall time [min]:   266.873
 
 Total CCSDT[Q] energy [au]:                  -75.056236138852
 Total CCSDT(Q)/A energy [au]:                -75.056173612319
 Total CCSDT(Q)/B energy [au]:                -75.056235503801
 
 Dominant cluster amplitudes
 Printing threshold:  1.00E-02
 
    1.000000  Reference determinant                                     
   -0.010280  3a 3b -> 80a 77b                                          
   -0.010803  5a 2b -> 77a 8b                                           
   -0.010803  5a 2b -> 76a 7b                                           
    0.010803  4a 2b -> 77a 7b                                           
   -0.010803  4a 2b -> 76a 8b                                           
   -0.010586  3a 2b -> 78a 7b                                           
   -0.010586  3a 2b -> 79a 8b                                           
   -0.012942  2a 2b -> 34a 34b                                          
   -0.017290  3a 3b -> 55a 45b                                          
   -0.013409  3a 3b -> 53a 53b                                          
   -0.013409  3a 3b -> 54a 54b                                          
   -0.012286  3a 3b -> 17a 17b                                          
   -0.019422  3a 3b -> 33a 17b                                          
   -0.018681  3a 3b -> 17a 33b                                          
   -0.033496  3a 3b -> 33a 33b                                          
   -0.018919  3a 3b -> 58a 33b                                          
   -0.018346  3a 3b -> 33a 58b                                          
   -0.018795  3a 3b -> 58a 58b                                          
   -0.014248  4a 3b -> 32a 17b                                          
   -0.013011  4a 3b -> 15a 33b                                          
   -0.023850  4a 3b -> 32a 33b                                          
   -0.014373  4a 3b -> 57a 33b                                          
   -0.013227  4a 3b -> 32a 58b                                          
   -0.013397  4a 3b -> 57a 58b                                          
   -0.014248  5a 3b -> 31a 17b                                          
   -0.013011  5a 3b -> 16a 33b                                          
   -0.023850  5a 3b -> 31a 33b                                          
   -0.014373  5a 3b -> 56a 33b                                          
   -0.013227  5a 3b -> 31a 58b                                          
   -0.013397  5a 3b -> 56a 58b                                          
   -0.012462  5a 2b -> 26a 8b                                           
   -0.019404  5a 2b -> 45a 8b                                           
    0.010685  5a 2b -> 55a 8b                                           
    0.015699  5a 2b -> 45a 16b                                          
    0.010119  5a 2b -> 34a 31b                                          
   -0.012462  5a 2b -> 27a 7b                                           
   -0.019404  5a 2b -> 44a 7b                                           
    0.015699  5a 2b -> 44a 15b                                          
   -0.011531  5a 2b -> 31a 18b                                          
    0.016708  5a 2b -> 31a 34b                                          
    0.012176  5a 2b -> 56a 34b                                          
    0.010533  5a 2b -> 56a 59b                                          
    0.012462  4a 2b -> 26a 7b                                           
    0.019404  4a 2b -> 45a 7b                                           
    0.010685  4a 2b -> 55a 7b                                           
   -0.015699  4a 2b -> 45a 15b                                          
    0.010119  4a 2b -> 34a 32b                                          
   -0.012462  4a 2b -> 27a 8b                                           
   -0.019404  4a 2b -> 44a 8b                                           
    0.015699  4a 2b -> 44a 16b                                          
   -0.011531  4a 2b -> 32a 18b                                          
    0.016708  4a 2b -> 32a 34b                                          
    0.012176  4a 2b -> 57a 34b                                          
    0.010533  4a 2b -> 57a 59b                                          
   -0.012030  2a 3b -> 18a 33b                                          
    0.017678  2a 3b -> 34a 33b                                          
    0.012024  2a 3b -> 34a 58b                                          
    0.010718  2a 3b -> 59a 58b                                          
   -0.012252  3a 2b -> 29a 7b                                           
   -0.018970  3a 2b -> 53a 7b                                           
    0.015322  3a 2b -> 53a 15b                                          
   -0.012252  3a 2b -> 28a 8b                                           
   -0.018970  3a 2b -> 54a 8b                                           
    0.015322  3a 2b -> 54a 16b                                          
   -0.012134  3a 2b -> 33a 18b                                          
    0.017443  3a 2b -> 33a 34b                                          
    0.012240  3a 2b -> 58a 34b                                          
    0.010595  3a 2b -> 58a 59b                                          
   -0.010602  3a 4a -> 17a 32a                                          
    0.010073  3a 4a -> 15a 33a                                          
    0.018314  3a 4a -> 32a 33a                                          
    0.012416  3a 4a -> 53a 55a                                          
   -0.011494  3a 4a -> 33a 57a                                          
    0.010890  3a 4a -> 32a 58a                                          
    0.010656  3a 4a -> 57a 58a                                          
   -0.010602  3a 5a -> 17a 31a                                          
    0.010073  3a 5a -> 16a 33a                                          
    0.018314  3a 5a -> 31a 33a                                          
    0.012416  3a 5a -> 54a 55a                                          
   -0.011494  3a 5a -> 33a 56a                                          
    0.010890  3a 5a -> 31a 58a                                          
    0.010656  3a 5a -> 56a 58a                                          
    0.017680  4a 5a -> 31a 32a                                          
   -0.013386  4a 5a -> 44a 45a                                          
   -0.011349  4a 5a -> 32a 56a                                          
    0.011349  4a 5a -> 31a 57a                                          
    0.011007  4a 5a -> 56a 57a                                          

 ************************ 2026-05-04 14:11:19 *************************
 Executing goldstone...

 Generation of MRCC equations in terms of H and T...
 Generation of antisymmetrized Goldstone diagrams...
 Number of diagrams in T^1 equations:    15
 Number of diagrams in T^2 equations:    38
 Number of diagrams in T^3 equations:    54
 Number of diagrams in T^4 equations:    77
 Number of diagrams in T^5 equations:     8
 Translation of diagrams to factorized equations...
 Number of restricted diagrams in T^1 equations:     78
 Number of restricted diagrams in T^2 equations:    344
 Number of restricted diagrams in T^3 equations:    892
 Number of restricted diagrams in T^4 equations:   1956
 Number of restricted diagrams in T^5 equations:    270
 Optimizing intermediate calculation...
 Number of floating-point operations per iteration step:   3.3315E+14
 Probable CPU time per iteration step (hours):         3331.51
 Required memory (Mbytes):        160207.5
 Number of intermediates:                                 976
 Number of intermediates to be stored:                    402
 Length of intermediate file (Mbytes):         56040.3

 ************************ 2026-05-04 14:11:23 *************************
 Executing xmrcc...

 **********************************************************************
 MRCC(                     5 ) calculation 
 
 
 Allocation of       947200.0 Mbytes of memory...
 Number of spinorbitals:                   268
 Number of alpha electrons:                        5
 Number of beta electrons:                         3
 Number of active particles:                   130
 Number of active holes:                         0
 Spin multiplicity:                     2
 z-component of spin:  1.0
 Spatial symmetry:                      4
 Convergence criterion:  1.0E-10
 Construction of occupation graphs...
 Number of                     0 -fold excitations:                      1
 Number of                     1 -fold excitations:                    196
 Number of                     2 -fold excitations:                  48341
 Number of                     3 -fold excitations:                6642540
 Number of                     4 -fold excitations:              471777814
 Total number of configurations:              478468892
 Calculation of coupling coefficients...
 Length of intermediate file (Mbytes):         35450.9
 
 ======================================================================
 
 Spin case  1   Alpha:  2   Beta:  3
 Number of excitations:              113561732
 Spin case  2   Alpha:  3   Beta:  2
 Number of excitations:              340703972
 Spin case  3   Alpha:  4   Beta:  1
 Number of excitations:               82547925
 Spin case  4   Alpha:  5   Beta:  0
 Number of excitations:                1034390
 Spin case  5   Alpha:  2   Beta:  3
 Number of excitations:              227120522
 Spin case  6   Alpha:  2   Beta:  3
 Number of excitations:              356922376
 Spin case  7   Alpha:  3   Beta:  2
 Number of excitations:             1038250984
 Spin case  8   Alpha:  3   Beta:  2
 Number of excitations:              702692318
 Spin case  9   Alpha:  4   Beta:  1
 Number of excitations:              340639066
 Spin case 10   Alpha:  4   Beta:  1
 Number of excitations:               83824965
 Spin case 11   Alpha:  5   Beta:  0
 Number of excitations:                5421784
 Spin case 12   Alpha:  2   Beta:  3
 Number of excitations:              110072166
 Spin case 13   Alpha:  2   Beta:  3
 Number of excitations:              713882116
 Spin case 14   Alpha:  2   Beta:  3
 Number of excitations:              362522412
 Spin case 15   Alpha:  3   Beta:  2
 Number of excitations:             1022001090
 Spin case 16   Alpha:  3   Beta:  2
 Number of excitations:             2141219004
 Spin case 17   Alpha:  3   Beta:  2
 Number of excitations:              351343406
 Spin case 18   Alpha:  4   Beta:  1
 Number of excitations:              510766878
 Spin case 19   Alpha:  4   Beta:  1
 Number of excitations:              345873378
 Spin case 20   Alpha:  5   Beta:  0
 Number of excitations:               11003352
 Spin case 21   Alpha:  2   Beta:  3
 Number of excitations:              345969948
 Spin case 22   Alpha:  2   Beta:  3
 Number of excitations:              725098849
 Spin case 23   Alpha:  2   Beta:  3
 Number of excitations:              118982600
 Spin case 24   Alpha:  3   Beta:  2
 Number of excitations:              324960190
 Spin case 25   Alpha:  3   Beta:  2
 Number of excitations:             2107671024
 Spin case 26   Alpha:  3   Beta:  2
 Number of excitations:             1070604708
 Spin case 27   Alpha:  4   Beta:  1
 Number of excitations:              329971785
 Spin case 28   Alpha:  4   Beta:  1
 Number of excitations:              518582010
 Spin case 29   Alpha:  5   Beta:  0
 Number of excitations:               10829884
 Spin case 30   Alpha:  2   Beta:  3
 Number of excitations:              351401463
 Spin case 31   Alpha:  2   Beta:  3
 Number of excitations:              237974676
 Spin case 32   Alpha:  3   Beta:  2
 Number of excitations:              670207698
 Spin case 33   Alpha:  3   Beta:  2
 Number of excitations:             1053836445
 Spin case 34   Alpha:  4   Beta:  1
 Number of excitations:               77467856
 Spin case 35   Alpha:  4   Beta:  1
 Number of excitations:              335031939
 Spin case 36   Alpha:  5   Beta:  0
 Number of excitations:                5167309
 Spin case 37   Alpha:  2   Beta:  3
 Number of excitations:              115326756
 Spin case 38   Alpha:  3   Beta:  2
 Number of excitations:              335103777
 Spin case 39   Alpha:  4   Beta:  1
 Number of excitations:               78664430
 Spin case 40   Alpha:  5   Beta:  0
 Number of excitations:                 954909
 Number of                     5 -fold excitations:            17675212092
 
 Memory requirements /Mbyte/: 
               Minimal        Optimal
 Real*8:      22325.1012     22325.1012
 Integer:    170413.0934
 Total:      192738.1945    192738.1945
 

 ************************ 2026-05-04 16:01:59 *************************
 Executing mrcc...

 **********************************************************************
 CCSDTQ(P) calculation                                                  
 
 
 OpenMP parallel version is running.
 Number of CPU cores:   4
 Allocation of        22325.1 Mbytes of memory...
 Number of spinorbitals: 268
 Number of alpha electrons:  5
 Number of beta  electrons:  3
 Number of active particles:                   130
 Number of active holes:                         0
 Spin multiplicity: 3
 z-component of spin:  1.0
 Spatial symmetry: 4
 Convergence criterion:  1.0E-10
 Construction of occupation graphs...
 Number of 0-fold excitations: 1
 Number of 1-fold excitations: 196
 Number of 2-fold excitations: 48341
 Number of 3-fold excitations: 6642540
 Number of 4-fold excitations: 471777814
 Total number of determinants: 478468892
 Calculation of coupling coefficients...
 Initial cluster amplitudes are read from unit 16.
 Length of intermediate file (Mbytes):   35450.9
 Reading integral list from unit 55...
 Sorting integrals...
 Sorting integrals...
 Sorting integrals...
 Sorting integrals...
 Energy of reference determinant [au]:     -74.817662618929
 Calculation of MP denominators...
 
 Starting CC iteration...
 ==============================================================================
 Norm of residual vector:     0.04610013
 CPU time [hr]:     7.133                          Wall time [hr]:     3.661
 
 Iteration  1  CC energy:   -75.05624301          Energy decrease:   4.4054E-13
 Step       1  CC energy:   -75.056243008342364   Energy change  :   4.4054E-13
 ==============================================================================
