#INFO: **** input file is /lustre09/project/6004934/jaafar1/PySCF-MRCC/Oxygen/NewChapter-Anion/1-/dawCV4Z/UHF/input.py ****
import pyscf
from pyscf import cc, lib, tools, scf, symm, ao2mo
from pyscf.gto.basis import parse_gaussian
from pyscf.scf import atom_hf

name = 'out'
mol = pyscf.M(
    atom = '''
        O
    ''',
    unit = 'angstrom',
    basis = {
            'O' : parse_gaussian.load('O-d-aug-cc-pwCVQZ.gbs', 'O')
    },
    charge = -1,
    spin = 1,
    symmetry = True,
    verbose = 9,
    symmetry_subgroup = 'D2h',
    output = name +'.txt',
    max_memory = 32000,
)

original_AtomSphAverageRHF = atom_hf.AtomSphAverageRHF

class CustomAtomSphAverageRHF(original_AtomSphAverageRHF):
    def __init__(self, mol):
        super().__init__(mol)
        self.max_cycle = 9999
        self.direct_scf = False

atom_hf.AtomSphAverageRHF = CustomAtomSphAverageRHF

mf = mol.UHF().set(
    conv_tol=1e-13,
    max_cycle=9999,
    ddm_tol=1e-12,
    direct_scf=False,
    chkfile=name + '.chk',
    init_guess='atom',
    irrep_nelec={'Ag': 4, 'B3u': 2, 'B2u': 2, 'B1u': 1}
)

mf.kernel()

atom_hf.AtomSphAverageRHF = original_AtomSphAverageRHF

#pyscf.tools.fcidump.from_chkfile_uhf('FCIdump',name+'.chk',tol=1e-18, float_format='% 0.20E',molpro_orbsym=False,orbsym=None)
pyscf.tools.fcidump.from_scf_uhf(mf,'fort.55',tol=1e-18, float_format='% 0.20E',molpro_orbsym=False)
#MRCCInterface.run_mrcc(mf, fort_file='fort.55', mrcc_input_file='MINP', tol=1e-18, float_format='% 0.20E', molpro_orbsym=False)
#INFO: ******************** input file end ********************


System: uname_result(system='Linux', node='rc32119', release='5.14.0-687.5.4.el9_8.x86_64', version='#1 SMP PREEMPT_DYNAMIC Thu May 28 09:20:26 EDT 2026', machine='x86_64')  Threads 4
Python 3.13.2 (main, Feb  5 2025, 15:06:39) [GCC 13.3.0]
numpy 2.2.2  scipy 1.15.1  h5py 3.13.0
Date: Wed Jun 10 08:05:20 2026
PySCF version 2.10.0
PySCF path  /home/jaafar1/links/projects/rrg-tzeng/jaafar1/VENV/MRCCInterface/lib/python3.13/site-packages/pyscf

[CONFIG] ARGPARSE = False
[CONFIG] DEBUG = False
[CONFIG] MAX_MEMORY = 4000
[CONFIG] TMPDIR = /tmp
[CONFIG] UNIT = angstrom
[CONFIG] VERBOSE = 3
[CONFIG] conf_file = None
[INPUT] verbose = 9
[INPUT] max_memory = 32000 
[INPUT] num. atoms = 1
[INPUT] num. electrons = 9
[INPUT] charge = -1
[INPUT] spin (= nelec alpha-beta = 2S) = 1
[INPUT] symmetry True subgroup D2h
[INPUT] Mole.unit = angstrom
[INPUT] Symbol           X                Y                Z      unit          X                Y                Z       unit  Magmom
[INPUT]  1 O      0.000000000000   0.000000000000   0.000000000000 AA    0.000000000000   0.000000000000   0.000000000000 Bohr   0.0
[INPUT] ---------------- BASIS SET ---------------- 
[INPUT] l, kappa, [nprim/nctr], expnt,             c_1 c_2 ...
[INPUT] O
[INPUT] 0    0    [1    /1   ]  71.206               1
[INPUT] 0    0    [1    /1   ]  27.314               1
[INPUT] 0    0    [12   /2   ]  61420             9e-05 -2e-05
                                9199              0.000698 -0.000159
                                2091              0.003664 -0.000829
                                590.9             0.015218 -0.003508
                                192.3             0.052423 -0.012156
                                69.32             0.145921 -0.036261
                                26.97             0.305258 -0.082992
                                11.1              0.398508 -0.15209
                                4.682             0.21698 -0.115331
                                1.428             0.017594 0.288979
                                0.5547            -0.002502 0.586128
                                0.2067            0.000954 0.277624
[INPUT] 0    0    [1    /1   ]  10.478               1
[INPUT] 0    0    [1    /1   ]  1.428                1
[INPUT] 0    0    [1    /1   ]  0.5547               1
[INPUT] 0    0    [1    /1   ]  0.2067               1
[INPUT] 0    0    [1    /1   ]  0.06959              1
[INPUT] 0    0    [1    /1   ]  0.0234               1
[INPUT] 1    0    [1    /1   ]  94.398               1
[INPUT] 1    0    [1    /1   ]  32.459               1
[INPUT] 1    0    [1    /1   ]  11.161               1
[INPUT] 1    0    [1    /1   ]  1.531                1
[INPUT] 1    0    [6    /1   ]  63.42             0.006044
                                14.66             0.041799
                                4.459             0.161143
                                1.531             0.356731
                                0.5302            0.448309
                                0.175             0.24494
[INPUT] 1    0    [1    /1   ]  0.5302               1
[INPUT] 1    0    [1    /1   ]  0.175                1
[INPUT] 1    0    [1    /1   ]  0.05348              1
[INPUT] 1    0    [1    /1   ]  0.0163               1
[INPUT] 2    0    [1    /1   ]  39.239               1
[INPUT] 2    0    [1    /1   ]  11.469               1
[INPUT] 2    0    [1    /1   ]  3.775                1
[INPUT] 2    0    [1    /1   ]  1.3                  1
[INPUT] 2    0    [1    /1   ]  0.444                1
[INPUT] 2    0    [1    /1   ]  0.154                1
[INPUT] 2    0    [1    /1   ]  0.0534               1
[INPUT] 3    0    [1    /1   ]  12.163               1
[INPUT] 3    0    [1    /1   ]  2.666                1
[INPUT] 3    0    [1    /1   ]  0.859                1
[INPUT] 3    0    [1    /1   ]  0.324                1
[INPUT] 3    0    [1    /1   ]  0.122                1
[INPUT] 4    0    [1    /1   ]  1.846                1
[INPUT] 4    0    [1    /1   ]  0.714                1
[INPUT] 4    0    [1    /1   ]  0.276                1

nuclear repulsion = 0
point group symmetry = SO3, use subgroup D2h
symmetry origin: [0. 0. 0.]
symmetry axis x: [1. 0. 0.]
symmetry axis y: [0. 1. 0.]
symmetry axis z: [0. 0. 1.]
num. orbitals of irrep Ag = 33
num. orbitals of irrep B1g = 13
num. orbitals of irrep B2g = 13
num. orbitals of irrep B3g = 13
num. orbitals of irrep Au = 5
num. orbitals of irrep B1u = 19
num. orbitals of irrep B2u = 19
num. orbitals of irrep B3u = 19
number of shells = 33
number of NR pGTOs = 159
number of NR cGTOs = 134
basis = {'O': [[0, [71.206, 1.0]], [0, [27.314, 1.0]], [0, [61420.0, 9e-05, -2e-05], [9199.0, 0.000698, -0.000159], [2091.0, 0.003664, -0.000829], [590.9, 0.015218, -0.003508], [192.3, 0.052423, -0.012156], [69.32, 0.145921, -0.036261], [26.97, 0.305258, -0.082992], [11.1, 0.398508, -0.15209], [4.682, 0.21698, -0.115331], [1.428, 0.017594, 0.288979], [0.5547, -0.002502, 0.586128], [0.2067, 0.000954, 0.277624]], [0, [10.478, 1.0]], [0, [1.428, 1.0]], [0, [0.5547, 1.0]], [0, [0.2067, 1.0]], [0, [0.06959, 1.0]], [0, [0.0234, 1.0]], [1, [94.398, 1.0]], [1, [32.459, 1.0]], [1, [11.161, 1.0]], [1, [1.531, 1.0]], [1, [63.42, 0.006044], [14.66, 0.041799], [4.459, 0.161143], [1.531, 0.356731], [0.5302, 0.448309], [0.175, 0.24494]], [1, [0.5302, 1.0]], [1, [0.175, 1.0]], [1, [0.05348, 1.0]], [1, [0.0163, 1.0]], [2, [39.239, 1.0]], [2, [11.469, 1.0]], [2, [3.775, 1.0]], [2, [1.3, 1.0]], [2, [0.444, 1.0]], [2, [0.154, 1.0]], [2, [0.0534, 1.0]], [3, [12.163, 1.0]], [3, [2.666, 1.0]], [3, [0.859, 1.0]], [3, [0.324, 1.0]], [3, [0.122, 1.0]], [4, [1.846, 1.0]], [4, [0.714, 1.0]], [4, [0.276, 1.0]]]}
ecp = {}
bas 0, expnt(s) = [71.206]
bas 1, expnt(s) = [27.314]
bas 2, expnt(s) = [6.142e+04 9.199e+03 2.091e+03 5.909e+02 1.923e+02 6.932e+01 2.697e+01
 1.110e+01 4.682e+00 1.428e+00 5.547e-01 2.067e-01]
bas 3, expnt(s) = [10.478]
bas 4, expnt(s) = [1.428]
bas 5, expnt(s) = [0.5547]
bas 6, expnt(s) = [0.2067]
bas 7, expnt(s) = [0.06959]
bas 8, expnt(s) = [0.0234]
bas 9, expnt(s) = [94.398]
bas 10, expnt(s) = [32.459]
bas 11, expnt(s) = [11.161]
bas 12, expnt(s) = [1.531]
bas 13, expnt(s) = [63.42   14.66    4.459   1.531   0.5302  0.175 ]
bas 14, expnt(s) = [0.5302]
bas 15, expnt(s) = [0.175]
bas 16, expnt(s) = [0.05348]
bas 17, expnt(s) = [0.0163]
bas 18, expnt(s) = [39.239]
bas 19, expnt(s) = [11.469]
bas 20, expnt(s) = [3.775]
bas 21, expnt(s) = [1.3]
bas 22, expnt(s) = [0.444]
bas 23, expnt(s) = [0.154]
bas 24, expnt(s) = [0.0534]
bas 25, expnt(s) = [12.163]
bas 26, expnt(s) = [2.666]
bas 27, expnt(s) = [0.859]
bas 28, expnt(s) = [0.324]
bas 29, expnt(s) = [0.122]
bas 30, expnt(s) = [1.846]
bas 31, expnt(s) = [0.714]
bas 32, expnt(s) = [0.276]
CPU time:         1.53
arg.atm = [[ 8 20  1 23  0  0]]
arg.bas = [[  0   0   1   1   0  24  25   0]
 [  0   0   1   1   0  26  27   0]
 [  0   0  12   2   0  28  40   0]
 [  0   0   1   1   0  64  65   0]
 [  0   0   1   1   0  66  67   0]
 [  0   0   1   1   0  68  69   0]
 [  0   0   1   1   0  70  71   0]
 [  0   0   1   1   0  72  73   0]
 [  0   0   1   1   0  74  75   0]
 [  0   1   1   1   0  76  77   0]
 [  0   1   1   1   0  78  79   0]
 [  0   1   1   1   0  80  81   0]
 [  0   1   1   1   0  82  83   0]
 [  0   1   6   1   0  84  90   0]
 [  0   1   1   1   0  96  97   0]
 [  0   1   1   1   0  98  99   0]
 [  0   1   1   1   0 100 101   0]
 [  0   1   1   1   0 102 103   0]
 [  0   2   1   1   0 104 105   0]
 [  0   2   1   1   0 106 107   0]
 [  0   2   1   1   0 108 109   0]
 [  0   2   1   1   0 110 111   0]
 [  0   2   1   1   0 112 113   0]
 [  0   2   1   1   0 114 115   0]
 [  0   2   1   1   0 116 117   0]
 [  0   3   1   1   0 118 119   0]
 [  0   3   1   1   0 120 121   0]
 [  0   3   1   1   0 122 123   0]
 [  0   3   1   1   0 124 125   0]
 [  0   3   1   1   0 126 127   0]
 [  0   4   1   1   0 128 129   0]
 [  0   4   1   1   0 130 131   0]
 [  0   4   1   1   0 132 133   0]]
arg.env = [ 0.00000000e+00  0.00000000e+00  0.00000000e+00  0.00000000e+00
  0.00000000e+00  0.00000000e+00  0.00000000e+00  0.00000000e+00
  0.00000000e+00  0.00000000e+00  0.00000000e+00  0.00000000e+00
  0.00000000e+00  0.00000000e+00  0.00000000e+00  0.00000000e+00
  0.00000000e+00  0.00000000e+00  0.00000000e+00  0.00000000e+00
  0.00000000e+00  0.00000000e+00  0.00000000e+00  0.00000000e+00
  7.12060000e+01  6.19301977e+01  2.73140000e+01  3.01858912e+01
  6.14200000e+04  9.19900000e+03  2.09100000e+03  5.90900000e+02
  1.92300000e+02  6.93200000e+01  2.69700000e+01  1.11000000e+01
  4.68200000e+00  1.42800000e+00  5.54700000e-01  2.06700000e-01
  8.87135990e-01  1.65644194e+00  2.86243952e+00  4.60795684e+00
  6.83945763e+00  8.85680418e+00  9.12731616e+00  6.12272295e+00
  1.74485198e+00  5.80665567e-02 -4.06299474e-03  7.38871750e-04
 -1.97141210e-01 -3.77326799e-01 -6.47642168e-01 -1.06220940e+00
 -1.58595265e+00 -2.20089212e+00 -2.48148699e+00 -2.33672689e+00
 -9.27437554e-01  9.53734520e-01  9.51811956e-01  2.15019292e-01
  1.04780000e+01  1.47137651e+01  1.42800000e+00  3.30035897e+00
  5.54700000e-01  1.62389763e+00  2.06700000e-01  7.74498145e-01
  6.95900000e-02  3.42314386e-01  2.34000000e-02  1.51156531e-01
  9.43980000e+01  8.58396393e+02  3.24590000e+01  2.26023353e+02
  1.11610000e+01  5.95131966e+01  1.53100000e+00  4.96824931e+00
  6.34200000e+01  1.46600000e+01  4.45900000e+00  1.53100000e+00
  5.30200000e-01  1.75000000e-01  3.15566852e+00  3.49798127e+00
  3.04608775e+00  1.77232745e+00  5.91713172e-01  8.08800478e-02
  5.30200000e-01  1.31987878e+00  1.75000000e-01  3.30203714e-01
  5.34800000e-02  7.50280468e-02  1.63000000e-02  1.69909984e-02
  3.92390000e+01  1.60522445e+03  1.14690000e+01  1.86508704e+02
  3.77500000e+00  2.66768200e+01  1.30000000e+00  4.12981172e+00
  4.44000000e-01  6.30158188e-01  1.54000000e-01  9.87849189e-02
  5.34000000e-02  1.54784185e-02  1.21630000e+01  5.44944096e+02
  2.66600000e+00  1.79141286e+01  8.59000000e-01  1.40118339e+00
  3.24000000e-01  1.56220000e-01  1.22000000e-01  1.73508191e-02
  1.84600000e+00  7.09669709e+00  7.14000000e-01  5.20701927e-01
  2.76000000e-01  3.81433715e-02]
ecpbas  = []


******** <class 'pyscf.scf.uhf_symm.SymAdaptedUHF'> ********
method = SymAdaptedUHF
initial guess = atom
damping factor = 0
level_shift factor = 0
DIIS = <class 'pyscf.scf.diis.CDIIS'>
diis_start_cycle = 1
diis_space = 8
diis_damp = 0
SCF conv_tol = 1e-13
SCF conv_tol_grad = None
SCF ddm_tol = 1e-12
SCF max_cycles = 9999
direct_scf = False
chkfile to save SCF result = out.chk
max_memory 32000 MB (current use 123 MB)
number electrons alpha = 5  beta = 4
irrep_nelec {'Ag': 4, 'B3u': 2, 'B2u': 2, 'B1u': 1}
Freeze 9 electrons in irreps ['Ag', 'B3u', 'B2u', 'B1u']
    0 free electrons in irreps B1g B2g B3g Au
cond(S) = 132037.86406714446

WARN: Singularity detected in overlap matrix (condition number = 1.32e+05). SCF may be inaccurate and hard to converge.

Set gradient conv threshold to 3.16228e-07
Spherically averaged atomic HF for {'O'}


******** <class '__main__.CustomAtomSphAverageRHF'> ********
method = CustomAtomSphAverageRHF
initial guess = minao
damping factor = 0
level_shift factor = 0
DIIS = <class 'pyscf.scf.diis.CDIIS'>
diis_start_cycle = 1
diis_space = 8
diis_damp = 0
SCF conv_tol = 1e-09
SCF conv_tol_grad = None
SCF ddm_tol = 1e-10
SCF max_cycles = 9999
direct_scf = False
chkfile to save SCF result = /tmp/tmptk3k9yyu
max_memory 32000 MB (current use 125 MB)
atom = O
Set gradient conv threshold to 3.16228e-05
Initial guess from minao.
Nelec from initial guess = 7.99990805070434
E1 = -103.09156025187767  E_coul = 28.80560929808277
init E= -74.2859509537949
l = 0  e_0 = -20.7014318
l = 0  e_1 = -1.26312609
l = 0  e_2 = 0.0378581929
l = 0  e_3 = 0.226683116
l = 0  e_4 = 0.977113391
l = 0  e_5 = 3.75896007
l = 0  e_6 = 14.3598476
l = 0  e_7 = 50.0675369
l = 0  e_8 = 163.988542
l = 0  e_9 = 671.760939
l = 1  e_0 = -0.390871697
l = 1  e_1 = 0.0386559145
l = 1  e_2 = 0.185713875
l = 1  e_3 = 0.753697334
l = 1  e_4 = 2.71280193
l = 1  e_5 = 8.99437498
l = 1  e_6 = 28.2514438
l = 1  e_7 = 90.1888788
l = 1  e_8 = 294.587574
l = 2  e_0 = 0.171346662
l = 2  e_1 = 0.584634021
l = 2  e_2 = 1.60423491
l = 2  e_3 = 4.34283305
l = 2  e_4 = 12.4948808
l = 2  e_5 = 39.2631738
l = 2  e_6 = 140.182589
l = 3  e_0 = 0.510043294
l = 3  e_1 = 1.57508141
l = 3  e_2 = 4.17989554
l = 3  e_3 = 11.8469575
l = 3  e_4 = 49.211896
l = 4  e_0 = 1.42693601
l = 4  e_1 = 4.13683004
l = 4  e_2 = 10.8514772
    CPU time for initialize scf      1.90 sec, wall time      0.74 sec
l = 0  e_0 = -20.7014318
l = 0  e_1 = -1.26312609
l = 0  e_2 = 0.0378581929
l = 0  e_3 = 0.226683116
l = 0  e_4 = 0.977113391
l = 0  e_5 = 3.75896007
l = 0  e_6 = 14.3598476
l = 0  e_7 = 50.0675369
l = 0  e_8 = 163.988542
l = 0  e_9 = 671.760939
l = 1  e_0 = -0.390871697
l = 1  e_1 = 0.0386559145
l = 1  e_2 = 0.185713875
l = 1  e_3 = 0.753697334
l = 1  e_4 = 2.71280193
l = 1  e_5 = 8.99437498
l = 1  e_6 = 28.2514438
l = 1  e_7 = 90.1888788
l = 1  e_8 = 294.587574
l = 2  e_0 = 0.171346662
l = 2  e_1 = 0.584634021
l = 2  e_2 = 1.60423491
l = 2  e_3 = 4.34283305
l = 2  e_4 = 12.4948808
l = 2  e_5 = 39.2631738
l = 2  e_6 = 140.182589
l = 3  e_0 = 0.510043294
l = 3  e_1 = 1.57508141
l = 3  e_2 = 4.17989554
l = 3  e_3 = 11.8469575
l = 3  e_4 = 49.211896
l = 4  e_0 = 1.42693601
l = 4  e_1 = 4.13683004
l = 4  e_2 = 10.8514772
l = 0  occ = 2 + 0
l = 1  occ = 0 + 1.333
l = 2  occ = 0 + 0
l = 3  occ = 0 + 0
E1 = -102.38203234312948  E_coul = 28.08731691123569
cycle= 1 E= -74.2947154318938  delta_E= -0.00876  |g|=    0  |ddm|= 0.195
    CPU time for cycle= 1      0.32 sec, wall time      0.11 sec
diis-norm(errvec)=0.136165
diis-c [-0.0185408  1.       ]
l = 0  e_0 = -20.8772624
l = 0  e_1 = -1.33293644
l = 0  e_2 = 0.0369571984
l = 0  e_3 = 0.220677866
l = 0  e_4 = 0.954489139
l = 0  e_5 = 3.69798562
l = 0  e_6 = 14.243238
l = 0  e_7 = 49.9096434
l = 0  e_8 = 163.806798
l = 0  e_9 = 671.560726
l = 1  e_0 = -0.44733786
l = 1  e_1 = 0.038475834
l = 1  e_2 = 0.182834763
l = 1  e_3 = 0.735465703
l = 1  e_4 = 2.65777271
l = 1  e_5 = 8.89146276
l = 1  e_6 = 28.1066655
l = 1  e_7 = 90.015684
l = 1  e_8 = 294.39705
l = 2  e_0 = 0.170978238
l = 2  e_1 = 0.578446672
l = 2  e_2 = 1.57908066
l = 2  e_3 = 4.28371736
l = 2  e_4 = 12.3882072
l = 2  e_5 = 39.1121751
l = 2  e_6 = 140.00365
l = 3  e_0 = 0.509273807
l = 3  e_1 = 1.56629139
l = 3  e_2 = 4.1444659
l = 3  e_3 = 11.7585928
l = 3  e_4 = 49.057688
l = 4  e_0 = 1.42402181
l = 4  e_1 = 4.1169688
l = 4  e_2 = 10.7889797
l = 0  occ = 2 + 0
l = 1  occ = 0 + 1.333
l = 2  occ = 0 + 0
l = 3  occ = 0 + 0
E1 = -102.75325354349431  E_coul = 28.457272743872423
cycle= 2 E= -74.2959807996219  delta_E= -0.00127  |g|=    0  |ddm|= 0.0641
    CPU time for cycle= 2      0.54 sec, wall time      0.18 sec
diis-norm(errvec)=0.059217
diis-c [-3.09380134e-04  2.95166166e-01  7.04833834e-01]
l = 0  e_0 = -20.8121899
l = 0  e_1 = -1.31044935
l = 0  e_2 = 0.0372902199
l = 0  e_3 = 0.222541394
l = 0  e_4 = 0.961608751
l = 0  e_5 = 3.71904209
l = 0  e_6 = 14.2856006
l = 0  e_7 = 49.9679634
l = 0  e_8 = 163.874297
l = 0  e_9 = 671.633938
l = 1  e_0 = -0.425809409
l = 1  e_1 = 0.0385543804
l = 1  e_2 = 0.184005845
l = 1  e_3 = 0.742458876
l = 1  e_4 = 2.67828125
l = 1  e_5 = 8.92946845
l = 1  e_6 = 28.1599775
l = 1  e_7 = 90.0796813
l = 1  e_8 = 294.467566
l = 2  e_0 = 0.1711571
l = 2  e_1 = 0.580641789
l = 2  e_2 = 1.58818399
l = 2  e_3 = 4.30538806
l = 2  e_4 = 12.4276224
l = 2  e_5 = 39.1680704
l = 2  e_6 = 140.070086
l = 3  e_0 = 0.509613784
l = 3  e_1 = 1.56941353
l = 3  e_2 = 4.15720603
l = 3  e_3 = 11.7910714
l = 3  e_4 = 49.1147533
l = 4  e_0 = 1.42513459
l = 4  e_1 = 4.1239816
l = 4  e_2 = 10.8116852
l = 0  occ = 2 + 0
l = 1  occ = 0 + 1.333
l = 2  occ = 0 + 0
l = 3  occ = 0 + 0
E1 = -102.6205735231857  E_coul = 28.32420485077127
cycle= 3 E= -74.2963686724144  delta_E= -0.000388  |g|=    0  |ddm|= 0.0277
    CPU time for cycle= 3      0.57 sec, wall time      0.19 sec
diis-norm(errvec)=0.00672668
diis-c [-1.50299758e-06 -9.86298650e-02 -1.09836955e-01  1.20846682e+00]
l = 0  e_0 = -20.8155978
l = 0  e_1 = -1.31261594
l = 0  e_2 = 0.0372647147
l = 0  e_3 = 0.222330516
l = 0  e_4 = 0.960905518
l = 0  e_5 = 3.71755832
l = 0  e_6 = 14.2831458
l = 0  e_7 = 49.9648241
l = 0  e_8 = 163.871051
l = 0  e_9 = 671.631084
l = 1  e_0 = -0.426734127
l = 1  e_1 = 0.0385528238
l = 1  e_2 = 0.18396668
l = 1  e_3 = 0.742140983
l = 1  e_4 = 2.67727737
l = 1  e_5 = 8.92746885
l = 1  e_6 = 28.1570807
l = 1  e_7 = 90.0763418
l = 1  e_8 = 294.464394
l = 2  e_0 = 0.17115383
l = 2  e_1 = 0.580494147
l = 2  e_2 = 1.58767263
l = 2  e_3 = 4.30422858
l = 2  e_4 = 12.425534
l = 2  e_5 = 39.1650203
l = 2  e_6 = 140.066659
l = 3  e_0 = 0.509602522
l = 3  e_1 = 1.56921131
l = 3  e_2 = 4.15647786
l = 3  e_3 = 11.7893524
l = 3  e_4 = 49.1116073
l = 4  e_0 = 1.42507237
l = 4  e_1 = 4.12353947
l = 4  e_2 = 10.8104519
l = 0  occ = 2 + 0
l = 1  occ = 0 + 1.333
l = 2  occ = 0 + 0
l = 3  occ = 0 + 0
E1 = -102.62845888844957  E_coul = 28.33208579752262
cycle= 4 E= -74.2963730909269  delta_E= -4.42e-06  |g|=    0  |ddm|= 0.00377
    CPU time for cycle= 4      0.61 sec, wall time      0.21 sec
diis-norm(errvec)=0.000231781
diis-c [-3.97563773e-09  1.74998737e-03  2.53577176e-03 -5.17075089e-02
  1.04742175e+00]
l = 0  e_0 = -20.8157246
l = 0  e_1 = -1.31270263
l = 0  e_2 = 0.0372600505
l = 0  e_3 = 0.222312597
l = 0  e_4 = 0.96086261
l = 0  e_5 = 3.71747919
l = 0  e_6 = 14.283036
l = 0  e_7 = 49.9647004
l = 0  e_8 = 163.870937
l = 0  e_9 = 671.631002
l = 1  e_0 = -0.42678434
l = 1  e_1 = 0.0385522562
l = 1  e_2 = 0.183959653
l = 1  e_3 = 0.74211062
l = 1  e_4 = 2.67721341
l = 1  e_5 = 8.92737244
l = 1  e_6 = 28.156962
l = 1  e_7 = 90.0762177
l = 1  e_8 = 294.464288
l = 2  e_0 = 0.171150915
l = 2  e_1 = 0.580477641
l = 2  e_2 = 1.58763336
l = 2  e_3 = 4.30415685
l = 2  e_4 = 12.4254325
l = 2  e_5 = 39.1648956
l = 2  e_6 = 140.066534
l = 3  e_0 = 0.509597065
l = 3  e_1 = 1.5691871
l = 3  e_2 = 4.1564224
l = 3  e_3 = 11.7892604
l = 3  e_4 = 49.111479
l = 4  e_0 = 1.42505857
l = 4  e_1 = 4.12349689
l = 4  e_2 = 10.8103746
l = 0  occ = 2 + 0
l = 1  occ = 0 + 1.333
l = 2  occ = 0 + 0
l = 3  occ = 0 + 0
E1 = -102.62874685818826  E_coul = 28.332373760572246
cycle= 5 E= -74.296373097616  delta_E= -6.69e-09  |g|=    0  |ddm|= 0.000115
    CPU time for cycle= 5      0.64 sec, wall time      0.21 sec
diis-norm(errvec)=1.13322e-05
diis-c [-1.33473512e-11 -1.09191722e-04 -2.71676433e-04  6.93480675e-03
 -2.02429735e-01  1.19587580e+00]
l = 0  e_0 = -20.8157252
l = 0  e_1 = -1.31270537
l = 0  e_2 = 0.0372594754
l = 0  e_3 = 0.222311307
l = 0  e_4 = 0.960860905
l = 0  e_5 = 3.717477
l = 0  e_6 = 14.2830348
l = 0  e_7 = 49.9646997
l = 0  e_8 = 163.870936
l = 0  e_9 = 671.631001
l = 1  e_0 = -0.426785934
l = 1  e_1 = 0.0385522125
l = 1  e_2 = 0.18395909
l = 1  e_3 = 0.742108823
l = 1  e_4 = 2.67721123
l = 1  e_5 = 8.92737086
l = 1  e_6 = 28.1569612
l = 1  e_7 = 90.076217
l = 1  e_8 = 294.464287
l = 2  e_0 = 0.171150444
l = 2  e_1 = 0.580476087
l = 2  e_2 = 1.5876312
l = 2  e_3 = 4.30415442
l = 2  e_4 = 12.4254313
l = 2  e_5 = 39.164895
l = 2  e_6 = 140.066533
l = 3  e_0 = 0.509596247
l = 3  e_1 = 1.56918481
l = 3  e_2 = 4.15641951
l = 3  e_3 = 11.7892588
l = 3  e_4 = 49.1114786
l = 4  e_0 = 1.4250568
l = 4  e_1 = 4.12349371
l = 4  e_2 = 10.8103722
l = 0  occ = 2 + 0
l = 1  occ = 0 + 1.333
l = 2  occ = 0 + 0
l = 3  occ = 0 + 0
E1 = -102.62873279741993  E_coul = 28.33235969973456
cycle= 6 E= -74.2963730976854  delta_E= -6.93e-11  |g|=    0  |ddm|= 9.36e-06
    CPU time for cycle= 6      0.67 sec, wall time      0.23 sec
diis-norm(errvec)=1.48292e-06
diis-c [-1.09704301e-13 -5.61103515e-06  1.37565163e-05 -7.42665289e-05
  2.43056965e-03 -4.85180553e-02  1.04615361e+00]
l = 0  e_0 = -20.8157264
l = 0  e_1 = -1.3127061
l = 0  e_2 = 0.037259441
l = 0  e_3 = 0.222311192
l = 0  e_4 = 0.960860598
l = 0  e_5 = 3.71747633
l = 0  e_6 = 14.2830338
l = 0  e_7 = 49.9646985
l = 0  e_8 = 163.870935
l = 0  e_9 = 671.631
l = 1  e_0 = -0.426786535
l = 1  e_1 = 0.0385522083
l = 1  e_2 = 0.183959035
l = 1  e_3 = 0.742108556
l = 1  e_4 = 2.67721061
l = 1  e_5 = 8.92736991
l = 1  e_6 = 28.15696
l = 1  e_7 = 90.0762158
l = 1  e_8 = 294.464286
l = 2  e_0 = 0.171150419
l = 2  e_1 = 0.580475946
l = 2  e_2 = 1.58763082
l = 2  e_3 = 4.30415372
l = 2  e_4 = 12.4254303
l = 2  e_5 = 39.1648938
l = 2  e_6 = 140.066532
l = 3  e_0 = 0.509596202
l = 3  e_1 = 1.56918461
l = 3  e_2 = 4.15641898
l = 3  e_3 = 11.7892579
l = 3  e_4 = 49.1114774
l = 4  e_0 = 1.42505669
l = 4  e_1 = 4.12349332
l = 4  e_2 = 10.8103714
l = 0  occ = 2 + 0
l = 1  occ = 0 + 1.333
l = 2  occ = 0 + 0
l = 3  occ = 0 + 0
E1 = -102.62873497022204  E_coul = 28.332361872536524
cycle= 7 E= -74.2963730976855  delta_E= -1.42e-13  |g|=    0  |ddm|= 6.03e-07
    CPU time for cycle= 7      0.71 sec, wall time      0.24 sec
diis-norm(errvec)=5.06117e-08
diis-c [-2.83393356e-16  1.02142779e-06 -3.18647311e-07 -1.23073449e-05
  3.59155634e-04  2.04874577e-03 -1.31363638e-01  1.12896734e+00]
l = 0  e_0 = -20.8157264
l = 0  e_1 = -1.31270611
l = 0  e_2 = 0.0372594399
l = 0  e_3 = 0.22231119
l = 0  e_4 = 0.960860589
l = 0  e_5 = 3.71747631
l = 0  e_6 = 14.2830338
l = 0  e_7 = 49.9646985
l = 0  e_8 = 163.870935
l = 0  e_9 = 671.631
l = 1  e_0 = -0.426786552
l = 1  e_1 = 0.0385522082
l = 1  e_2 = 0.183959034
l = 1  e_3 = 0.742108549
l = 1  e_4 = 2.67721059
l = 1  e_5 = 8.92736989
l = 1  e_6 = 28.15696
l = 1  e_7 = 90.0762158
l = 1  e_8 = 294.464286
l = 2  e_0 = 0.171150419
l = 2  e_1 = 0.580475941
l = 2  e_2 = 1.58763081
l = 2  e_3 = 4.3041537
l = 2  e_4 = 12.4254303
l = 2  e_5 = 39.1648938
l = 2  e_6 = 140.066532
l = 3  e_0 = 0.509596201
l = 3  e_1 = 1.5691846
l = 3  e_2 = 4.15641896
l = 3  e_3 = 11.7892578
l = 3  e_4 = 49.1114773
l = 4  e_0 = 1.42505668
l = 4  e_1 = 4.12349331
l = 4  e_2 = 10.8103714
l = 0  occ = 2 + 0
l = 1  occ = 0 + 1.333
l = 2  occ = 0 + 0
l = 3  occ = 0 + 0
E1 = -102.62873499269023  E_coul = 28.332361895004546
cycle= 8 E= -74.2963730976857  delta_E= -1.71e-13  |g|=    0  |ddm|= 8.49e-08
    CPU time for cycle= 8      0.76 sec, wall time      0.26 sec
diis-norm(errvec)=1.48707e-09
Linear dependence found in DIIS error vectors.
diis-c [-1.01282788e-15  4.24885394e-07 -1.98183793e-08 -6.55732646e-06
  1.93254353e-04  4.87260125e-04 -5.07062441e-02  4.89290644e-01
  5.60741238e-01]
l = 0  e_0 = -20.8157264
l = 0  e_1 = -1.31270611
l = 0  e_2 = 0.03725944
l = 0  e_3 = 0.22231119
l = 0  e_4 = 0.960860589
l = 0  e_5 = 3.71747631
l = 0  e_6 = 14.2830338
l = 0  e_7 = 49.9646985
l = 0  e_8 = 163.870935
l = 0  e_9 = 671.631
l = 1  e_0 = -0.426786552
l = 1  e_1 = 0.0385522082
l = 1  e_2 = 0.183959034
l = 1  e_3 = 0.742108549
l = 1  e_4 = 2.67721059
l = 1  e_5 = 8.92736989
l = 1  e_6 = 28.15696
l = 1  e_7 = 90.0762158
l = 1  e_8 = 294.464286
l = 2  e_0 = 0.171150419
l = 2  e_1 = 0.580475941
l = 2  e_2 = 1.58763081
l = 2  e_3 = 4.3041537
l = 2  e_4 = 12.4254303
l = 2  e_5 = 39.1648938
l = 2  e_6 = 140.066532
l = 3  e_0 = 0.509596201
l = 3  e_1 = 1.5691846
l = 3  e_2 = 4.15641896
l = 3  e_3 = 11.7892578
l = 3  e_4 = 49.1114773
l = 4  e_0 = 1.42505668
l = 4  e_1 = 4.12349331
l = 4  e_2 = 10.8103714
l = 0  occ = 2 + 0
l = 1  occ = 0 + 1.333
l = 2  occ = 0 + 0
l = 3  occ = 0 + 0
E1 = -102.62873499223865  E_coul = 28.33236189455313
cycle= 9 E= -74.2963730976855  delta_E= 1.71e-13  |g|=    0  |ddm|= 4.94e-10
    CPU time for cycle= 9      0.79 sec, wall time      0.27 sec
diis-norm(errvec)=9.37301e-10
Linear dependence found in DIIS error vectors.
diis-c [-5.55459064e-16  3.60630838e-01 -4.86471632e-07  2.11264215e-06
  2.53081797e-05  9.58954837e-04 -3.76467722e-02  3.15550885e-01
  3.60479160e-01]
l = 0  e_0 = -20.8157264
l = 0  e_1 = -1.31270611
l = 0  e_2 = 0.03725944
l = 0  e_3 = 0.22231119
l = 0  e_4 = 0.960860589
l = 0  e_5 = 3.71747631
l = 0  e_6 = 14.2830338
l = 0  e_7 = 49.9646985
l = 0  e_8 = 163.870935
l = 0  e_9 = 671.631
l = 1  e_0 = -0.426786552
l = 1  e_1 = 0.0385522082
l = 1  e_2 = 0.183959034
l = 1  e_3 = 0.742108549
l = 1  e_4 = 2.67721059
l = 1  e_5 = 8.92736989
l = 1  e_6 = 28.15696
l = 1  e_7 = 90.0762158
l = 1  e_8 = 294.464286
l = 2  e_0 = 0.171150419
l = 2  e_1 = 0.580475941
l = 2  e_2 = 1.58763081
l = 2  e_3 = 4.3041537
l = 2  e_4 = 12.4254303
l = 2  e_5 = 39.1648938
l = 2  e_6 = 140.066532
l = 3  e_0 = 0.509596201
l = 3  e_1 = 1.5691846
l = 3  e_2 = 4.15641897
l = 3  e_3 = 11.7892578
l = 3  e_4 = 49.1114773
l = 4  e_0 = 1.42505668
l = 4  e_1 = 4.12349331
l = 4  e_2 = 10.8103714
l = 0  occ = 2 + 0
l = 1  occ = 0 + 1.333
l = 2  occ = 0 + 0
l = 3  occ = 0 + 0
E1 = -102.6287349907634  E_coul = 28.332361893077945
cycle= 10 E= -74.2963730976855  delta_E= 5.68e-14  |g|=    0  |ddm|= 3.46e-10
    CPU time for cycle= 10      0.78 sec, wall time      0.26 sec
diis-norm(errvec)=8.53283e-10
Linear dependence found in DIIS error vectors.
diis-c [-2.02811968e-16  2.58702284e-01  2.58778326e-01 -3.52763530e-06
  1.74228244e-04 -5.84701611e-04 -1.52862752e-02  2.39596242e-01
  2.58623424e-01]
l = 0  e_0 = -20.8157264
l = 0  e_1 = -1.31270611
l = 0  e_2 = 0.03725944
l = 0  e_3 = 0.22231119
l = 0  e_4 = 0.960860589
l = 0  e_5 = 3.71747631
l = 0  e_6 = 14.2830338
l = 0  e_7 = 49.9646985
l = 0  e_8 = 163.870935
l = 0  e_9 = 671.631
l = 1  e_0 = -0.426786552
l = 1  e_1 = 0.0385522082
l = 1  e_2 = 0.183959034
l = 1  e_3 = 0.742108549
l = 1  e_4 = 2.67721059
l = 1  e_5 = 8.92736989
l = 1  e_6 = 28.15696
l = 1  e_7 = 90.0762158
l = 1  e_8 = 294.464286
l = 2  e_0 = 0.171150419
l = 2  e_1 = 0.580475941
l = 2  e_2 = 1.58763081
l = 2  e_3 = 4.3041537
l = 2  e_4 = 12.4254303
l = 2  e_5 = 39.1648938
l = 2  e_6 = 140.066532
l = 3  e_0 = 0.509596201
l = 3  e_1 = 1.5691846
l = 3  e_2 = 4.15641897
l = 3  e_3 = 11.7892578
l = 3  e_4 = 49.1114773
l = 4  e_0 = 1.42505668
l = 4  e_1 = 4.12349331
l = 4  e_2 = 10.8103714
l = 0  occ = 2 + 0
l = 1  occ = 0 + 1.333
l = 2  occ = 0 + 0
l = 3  occ = 0 + 0
E1 = -102.62873499125772  E_coul = 28.33236189357211
cycle= 11 E= -74.2963730976856  delta_E= -1.42e-13  |g|=    0  |ddm|= 7.25e-10
    CPU time for cycle= 11      0.79 sec, wall time      0.27 sec
diis-norm(errvec)=9.27355e-10
Linear dependence found in DIIS error vectors.
diis-c [-7.72918249e-16  2.04552699e-01  2.04562574e-01  2.04547512e-01
  4.69939154e-05 -2.64654135e-05 -1.09931650e-02  1.92787044e-01
  2.04522807e-01]
l = 0  e_0 = -20.8157264
l = 0  e_1 = -1.31270611
l = 0  e_2 = 0.03725944
l = 0  e_3 = 0.22231119
l = 0  e_4 = 0.960860589
l = 0  e_5 = 3.71747631
l = 0  e_6 = 14.2830338
l = 0  e_7 = 49.9646985
l = 0  e_8 = 163.870935
l = 0  e_9 = 671.631
l = 1  e_0 = -0.426786552
l = 1  e_1 = 0.0385522082
l = 1  e_2 = 0.183959034
l = 1  e_3 = 0.742108549
l = 1  e_4 = 2.67721059
l = 1  e_5 = 8.92736989
l = 1  e_6 = 28.15696
l = 1  e_7 = 90.0762158
l = 1  e_8 = 294.464286
l = 2  e_0 = 0.171150419
l = 2  e_1 = 0.580475941
l = 2  e_2 = 1.58763081
l = 2  e_3 = 4.3041537
l = 2  e_4 = 12.4254303
l = 2  e_5 = 39.1648938
l = 2  e_6 = 140.066532
l = 3  e_0 = 0.509596201
l = 3  e_1 = 1.5691846
l = 3  e_2 = 4.15641897
l = 3  e_3 = 11.7892578
l = 3  e_4 = 49.1114773
l = 4  e_0 = 1.42505668
l = 4  e_1 = 4.12349331
l = 4  e_2 = 10.8103714
l = 0  occ = 2 + 0
l = 1  occ = 0 + 1.333
l = 2  occ = 0 + 0
l = 3  occ = 0 + 0
E1 = -102.62873498918535  E_coul = 28.3323618914999
cycle= 12 E= -74.2963730976854  delta_E= 1.56e-13  |g|=    0  |ddm|= 6.12e-10
    CPU time for cycle= 12      0.78 sec, wall time      0.26 sec
diis-norm(errvec)=1.93143e-09
Linear dependence found in DIIS error vectors.
diis-c [-8.33833711e-16  1.68077847e-01  1.68003542e-01  1.68016040e-01
  1.67875126e-01  8.84939420e-05 -4.30724072e-03  1.64139014e-01
  1.68107178e-01]
l = 0  e_0 = -20.8157264
l = 0  e_1 = -1.31270611
l = 0  e_2 = 0.03725944
l = 0  e_3 = 0.22231119
l = 0  e_4 = 0.960860589
l = 0  e_5 = 3.71747631
l = 0  e_6 = 14.2830338
l = 0  e_7 = 49.9646985
l = 0  e_8 = 163.870935
l = 0  e_9 = 671.631
l = 1  e_0 = -0.426786552
l = 1  e_1 = 0.0385522082
l = 1  e_2 = 0.183959034
l = 1  e_3 = 0.742108549
l = 1  e_4 = 2.67721059
l = 1  e_5 = 8.92736989
l = 1  e_6 = 28.15696
l = 1  e_7 = 90.0762158
l = 1  e_8 = 294.464286
l = 2  e_0 = 0.171150419
l = 2  e_1 = 0.580475941
l = 2  e_2 = 1.58763081
l = 2  e_3 = 4.3041537
l = 2  e_4 = 12.4254303
l = 2  e_5 = 39.1648938
l = 2  e_6 = 140.066532
l = 3  e_0 = 0.509596201
l = 3  e_1 = 1.5691846
l = 3  e_2 = 4.15641897
l = 3  e_3 = 11.7892578
l = 3  e_4 = 49.1114773
l = 4  e_0 = 1.42505668
l = 4  e_1 = 4.12349331
l = 4  e_2 = 10.8103714
l = 0  occ = 2 + 0
l = 1  occ = 0 + 1.333
l = 2  occ = 0 + 0
l = 3  occ = 0 + 0
E1 = -102.62873498990581  E_coul = 28.332361892220188
cycle= 13 E= -74.2963730976856  delta_E= -1.71e-13  |g|=    0  |ddm|= 4.52e-10
    CPU time for cycle= 13      0.79 sec, wall time      0.27 sec
diis-norm(errvec)=1.64868e-09
Linear dependence found in DIIS error vectors.
diis-c [-1.47601170e-16  1.43894360e-01  1.43831309e-01  1.43842236e-01
  1.43723724e-01  1.43775284e-01 -3.54753881e-03  1.40560035e-01
  1.43920589e-01]
l = 0  e_0 = -20.8157264
l = 0  e_1 = -1.31270611
l = 0  e_2 = 0.03725944
l = 0  e_3 = 0.22231119
l = 0  e_4 = 0.960860589
l = 0  e_5 = 3.71747631
l = 0  e_6 = 14.2830338
l = 0  e_7 = 49.9646985
l = 0  e_8 = 163.870935
l = 0  e_9 = 671.631
l = 1  e_0 = -0.426786552
l = 1  e_1 = 0.0385522082
l = 1  e_2 = 0.183959034
l = 1  e_3 = 0.742108549
l = 1  e_4 = 2.67721059
l = 1  e_5 = 8.92736989
l = 1  e_6 = 28.15696
l = 1  e_7 = 90.0762158
l = 1  e_8 = 294.464286
l = 2  e_0 = 0.171150419
l = 2  e_1 = 0.580475941
l = 2  e_2 = 1.58763081
l = 2  e_3 = 4.3041537
l = 2  e_4 = 12.4254303
l = 2  e_5 = 39.1648938
l = 2  e_6 = 140.066532
l = 3  e_0 = 0.509596201
l = 3  e_1 = 1.5691846
l = 3  e_2 = 4.15641897
l = 3  e_3 = 11.7892578
l = 3  e_4 = 49.1114773
l = 4  e_0 = 1.42505668
l = 4  e_1 = 4.12349331
l = 4  e_2 = 10.8103714
l = 0  occ = 2 + 0
l = 1  occ = 0 + 1.333
l = 2  occ = 0 + 0
l = 3  occ = 0 + 0
E1 = -102.6287349906832  E_coul = 28.332361892997703
cycle= 14 E= -74.2963730976855  delta_E= 1.28e-13  |g|=    0  |ddm|= 2.41e-10
    CPU time for cycle= 14      0.79 sec, wall time      0.27 sec
diis-norm(errvec)=1.24061e-09
Linear dependence found in DIIS error vectors.
diis-c [-4.1157153e-16  1.2500000e-01  1.2500000e-01  1.2500000e-01
  1.2500000e-01  1.2500000e-01  1.2500000e-01  1.2500000e-01
  1.2500000e-01]
l = 0  e_0 = -20.8157264
l = 0  e_1 = -1.31270611
l = 0  e_2 = 0.03725944
l = 0  e_3 = 0.22231119
l = 0  e_4 = 0.960860589
l = 0  e_5 = 3.71747631
l = 0  e_6 = 14.2830338
l = 0  e_7 = 49.9646985
l = 0  e_8 = 163.870935
l = 0  e_9 = 671.631
l = 1  e_0 = -0.426786553
l = 1  e_1 = 0.0385522082
l = 1  e_2 = 0.183959034
l = 1  e_3 = 0.742108549
l = 1  e_4 = 2.67721059
l = 1  e_5 = 8.92736989
l = 1  e_6 = 28.15696
l = 1  e_7 = 90.0762157
l = 1  e_8 = 294.464286
l = 2  e_0 = 0.171150419
l = 2  e_1 = 0.580475941
l = 2  e_2 = 1.58763081
l = 2  e_3 = 4.3041537
l = 2  e_4 = 12.4254303
l = 2  e_5 = 39.1648938
l = 2  e_6 = 140.066532
l = 3  e_0 = 0.509596201
l = 3  e_1 = 1.5691846
l = 3  e_2 = 4.15641897
l = 3  e_3 = 11.7892578
l = 3  e_4 = 49.1114773
l = 4  e_0 = 1.42505668
l = 4  e_1 = 4.12349331
l = 4  e_2 = 10.8103714
l = 0  occ = 2 + 0
l = 1  occ = 0 + 1.333
l = 2  occ = 0 + 0
l = 3  occ = 0 + 0
E1 = -102.62873499515341  E_coul = 28.332361897467706
cycle= 15 E= -74.2963730976857  delta_E= -2.13e-13  |g|=    0  |ddm|= 9.09e-10
    CPU time for cycle= 15      0.78 sec, wall time      0.26 sec
diis-norm(errvec)=1.63032e-09
Linear dependence found in DIIS error vectors.
diis-c [-2.89052492e-16  1.25000000e-01  1.25000000e-01  1.25000000e-01
  1.25000000e-01  1.25000000e-01  1.25000000e-01  1.25000000e-01
  1.25000000e-01]
l = 0  e_0 = -20.8157264
l = 0  e_1 = -1.31270611
l = 0  e_2 = 0.03725944
l = 0  e_3 = 0.22231119
l = 0  e_4 = 0.960860589
l = 0  e_5 = 3.71747631
l = 0  e_6 = 14.2830338
l = 0  e_7 = 49.9646985
l = 0  e_8 = 163.870935
l = 0  e_9 = 671.631
l = 1  e_0 = -0.426786552
l = 1  e_1 = 0.0385522082
l = 1  e_2 = 0.183959034
l = 1  e_3 = 0.742108549
l = 1  e_4 = 2.67721059
l = 1  e_5 = 8.92736989
l = 1  e_6 = 28.15696
l = 1  e_7 = 90.0762158
l = 1  e_8 = 294.464286
l = 2  e_0 = 0.171150419
l = 2  e_1 = 0.580475941
l = 2  e_2 = 1.58763081
l = 2  e_3 = 4.3041537
l = 2  e_4 = 12.4254303
l = 2  e_5 = 39.1648938
l = 2  e_6 = 140.066532
l = 3  e_0 = 0.509596201
l = 3  e_1 = 1.5691846
l = 3  e_2 = 4.15641897
l = 3  e_3 = 11.7892578
l = 3  e_4 = 49.1114773
l = 4  e_0 = 1.42505668
l = 4  e_1 = 4.12349331
l = 4  e_2 = 10.8103714
l = 0  occ = 2 + 0
l = 1  occ = 0 + 1.333
l = 2  occ = 0 + 0
l = 3  occ = 0 + 0
E1 = -102.62873499227666  E_coul = 28.332361894591127
cycle= 16 E= -74.2963730976855  delta_E= 1.71e-13  |g|=    0  |ddm|= 1.26e-09
    CPU time for cycle= 16      0.79 sec, wall time      0.27 sec
diis-norm(errvec)=2.18507e-10
Linear dependence found in DIIS error vectors.
diis-c [-2.89052492e-16  1.25000000e-01  1.25000000e-01  1.25000000e-01
  1.25000000e-01  1.25000000e-01  1.25000000e-01  1.25000000e-01
  1.25000000e-01]
l = 0  e_0 = -20.8157264
l = 0  e_1 = -1.31270611
l = 0  e_2 = 0.03725944
l = 0  e_3 = 0.22231119
l = 0  e_4 = 0.960860589
l = 0  e_5 = 3.71747631
l = 0  e_6 = 14.2830338
l = 0  e_7 = 49.9646985
l = 0  e_8 = 163.870935
l = 0  e_9 = 671.631
l = 1  e_0 = -0.426786552
l = 1  e_1 = 0.0385522082
l = 1  e_2 = 0.183959034
l = 1  e_3 = 0.742108549
l = 1  e_4 = 2.67721059
l = 1  e_5 = 8.92736989
l = 1  e_6 = 28.15696
l = 1  e_7 = 90.0762158
l = 1  e_8 = 294.464286
l = 2  e_0 = 0.171150419
l = 2  e_1 = 0.580475941
l = 2  e_2 = 1.58763081
l = 2  e_3 = 4.3041537
l = 2  e_4 = 12.4254303
l = 2  e_5 = 39.1648938
l = 2  e_6 = 140.066532
l = 3  e_0 = 0.509596201
l = 3  e_1 = 1.5691846
l = 3  e_2 = 4.15641897
l = 3  e_3 = 11.7892578
l = 3  e_4 = 49.1114773
l = 4  e_0 = 1.42505668
l = 4  e_1 = 4.12349331
l = 4  e_2 = 10.8103714
l = 0  occ = 2 + 0
l = 1  occ = 0 + 1.333
l = 2  occ = 0 + 0
l = 3  occ = 0 + 0
E1 = -102.62873499230045  E_coul = 28.332361894615
cycle= 17 E= -74.2963730976854  delta_E= 8.53e-14  |g|=    0  |ddm|= 2.24e-11
    CPU time for cycle= 17      0.79 sec, wall time      0.27 sec
l = 0  e_0 = -20.8157264
l = 0  e_1 = -1.31270611
l = 0  e_2 = 0.03725944
l = 0  e_3 = 0.22231119
l = 0  e_4 = 0.960860589
l = 0  e_5 = 3.71747631
l = 0  e_6 = 14.2830338
l = 0  e_7 = 49.9646985
l = 0  e_8 = 163.870935
l = 0  e_9 = 671.631
l = 1  e_0 = -0.426786552
l = 1  e_1 = 0.0385522082
l = 1  e_2 = 0.183959034
l = 1  e_3 = 0.742108549
l = 1  e_4 = 2.67721059
l = 1  e_5 = 8.92736989
l = 1  e_6 = 28.15696
l = 1  e_7 = 90.0762158
l = 1  e_8 = 294.464286
l = 2  e_0 = 0.171150419
l = 2  e_1 = 0.580475941
l = 2  e_2 = 1.58763081
l = 2  e_3 = 4.3041537
l = 2  e_4 = 12.4254303
l = 2  e_5 = 39.1648938
l = 2  e_6 = 140.066532
l = 3  e_0 = 0.509596201
l = 3  e_1 = 1.5691846
l = 3  e_2 = 4.15641897
l = 3  e_3 = 11.7892578
l = 3  e_4 = 49.1114773
l = 4  e_0 = 1.42505668
l = 4  e_1 = 4.12349331
l = 4  e_2 = 10.8103714
l = 0  occ = 2 + 0
l = 1  occ = 0 + 1.333
l = 2  occ = 0 + 0
l = 3  occ = 0 + 0
E1 = -102.62873499175424  E_coul = 28.332361894068637
Extra cycle  E= -74.2963730976856  delta_E= -1.56e-13  |g|=    0  |ddm|= 2.24e-11
    CPU time for scf_cycle     14.19 sec, wall time      4.88 sec
    CPU time for SCF     14.19 sec, wall time      4.88 sec
Atomic HF for atom  O  converged. SCF energy = -74.2963730976856

Atom O, E = -74.2963730977
Nelec from initial guess = (np.float64(4.000000000000003), np.float64(4.000000000000003))
E1 = -102.62873499175424  Ecoul = 28.332361894068637
init E= -74.2963730976856
    CPU time for initialize scf     24.82 sec, wall time      8.48 sec
alpha HOMO (B1u) = -0.426786552361039  LUMO (Ag) = 0.0372594399755362
alpha irrep_nelec = [2, 0, 0, 0, 0, 1, 1, 1]
beta  irrep_nelec = [2, 0, 0, 0, 0, 0, 1, 1]
alpha-Ag nocc = 2  HOMO = -1.31270611095199  LUMO = 0.0372594399755362
   mo_energy = [-2.08157264e+01 -1.31270611e+00  3.72594400e-02  1.71150419e-01
  1.71150419e-01  2.22311190e-01  5.80475941e-01  5.80475941e-01
  9.60860589e-01  1.42505668e+00  1.42505668e+00  1.42505668e+00
  1.58763081e+00  1.58763081e+00  3.71747631e+00  4.12349331e+00
  4.12349331e+00  4.12349331e+00  4.30415370e+00  4.30415370e+00
  1.08103714e+01  1.08103714e+01  1.08103714e+01  1.24254303e+01
  1.24254303e+01  1.42830338e+01  3.91648938e+01  3.91648938e+01
  4.99646985e+01  1.40066532e+02  1.40066532e+02  1.63870935e+02
  6.71631000e+02]
alpha-B1g nocc = 0
   mo_energy = [  0.17115042   0.58047594   1.42505668   1.42505668   1.58763081
   4.12349331   4.12349331   4.3041537   10.8103714   10.8103714
  12.42543025  39.16489376 140.06653172]
alpha-B2g nocc = 0
   mo_energy = [  0.17115042   0.58047594   1.42505668   1.42505668   1.58763081
   4.12349331   4.12349331   4.3041537   10.8103714   10.8103714
  12.42543025  39.16489376 140.06653172]
alpha-B3g nocc = 0
   mo_energy = [  0.17115042   0.58047594   1.42505668   1.42505668   1.58763081
   4.12349331   4.12349331   4.3041537   10.8103714   10.8103714
  12.42543025  39.16489376 140.06653172]
alpha-Au nocc = 0
   mo_energy = [ 0.5095962   1.5691846   4.15641897 11.78925783 49.11147733]
alpha-B1u nocc = 1  HOMO = -0.426786552361039  LUMO = 0.0385522081619872
   mo_energy = [-4.26786552e-01  3.85522082e-02  1.83959034e-01  5.09596201e-01
  5.09596201e-01  7.42108549e-01  1.56918460e+00  1.56918460e+00
  2.67721059e+00  4.15641897e+00  4.15641897e+00  8.92736989e+00
  1.17892578e+01  1.17892578e+01  2.81569600e+01  4.91114773e+01
  4.91114773e+01  9.00762158e+01  2.94464286e+02]
alpha-B2u nocc = 1  HOMO = -0.426786552361046  LUMO = 0.0385522081619983
   mo_energy = [-4.26786552e-01  3.85522082e-02  1.83959034e-01  5.09596201e-01
  5.09596201e-01  7.42108549e-01  1.56918460e+00  1.56918460e+00
  2.67721059e+00  4.15641897e+00  4.15641897e+00  8.92736989e+00
  1.17892578e+01  1.17892578e+01  2.81569600e+01  4.91114773e+01
  4.91114773e+01  9.00762158e+01  2.94464286e+02]
alpha-B3u nocc = 1  HOMO = -0.426786552361043  LUMO = 0.0385522081619954
   mo_energy = [-4.26786552e-01  3.85522082e-02  1.83959034e-01  5.09596201e-01
  5.09596201e-01  7.42108549e-01  1.56918460e+00  1.56918460e+00
  2.67721059e+00  4.15641897e+00  4.15641897e+00  8.92736989e+00
  1.17892578e+01  1.17892578e+01  2.81569600e+01  4.91114773e+01
  4.91114773e+01  9.00762158e+01  2.94464286e+02]
beta-Ag nocc = 2  HOMO = -1.31270611095199  LUMO = 0.0372594399755362
   mo_energy = [-2.08157264e+01 -1.31270611e+00  3.72594400e-02  1.71150419e-01
  1.71150419e-01  2.22311190e-01  5.80475941e-01  5.80475941e-01
  9.60860589e-01  1.42505668e+00  1.42505668e+00  1.42505668e+00
  1.58763081e+00  1.58763081e+00  3.71747631e+00  4.12349331e+00
  4.12349331e+00  4.12349331e+00  4.30415370e+00  4.30415370e+00
  1.08103714e+01  1.08103714e+01  1.08103714e+01  1.24254303e+01
  1.24254303e+01  1.42830338e+01  3.91648938e+01  3.91648938e+01
  4.99646985e+01  1.40066532e+02  1.40066532e+02  1.63870935e+02
  6.71631000e+02]
beta-B1g nocc = 0
   mo_energy = [  0.17115042   0.58047594   1.42505668   1.42505668   1.58763081
   4.12349331   4.12349331   4.3041537   10.8103714   10.8103714
  12.42543025  39.16489376 140.06653172]
beta-B2g nocc = 0
   mo_energy = [  0.17115042   0.58047594   1.42505668   1.42505668   1.58763081
   4.12349331   4.12349331   4.3041537   10.8103714   10.8103714
  12.42543025  39.16489376 140.06653172]
beta-B3g nocc = 0
   mo_energy = [  0.17115042   0.58047594   1.42505668   1.42505668   1.58763081
   4.12349331   4.12349331   4.3041537   10.8103714   10.8103714
  12.42543025  39.16489376 140.06653172]
beta-Au nocc = 0
   mo_energy = [ 0.5095962   1.5691846   4.15641897 11.78925783 49.11147733]
beta-B1u nocc = 0
   mo_energy = [-4.26786552e-01  3.85522082e-02  1.83959034e-01  5.09596201e-01
  5.09596201e-01  7.42108549e-01  1.56918460e+00  1.56918460e+00
  2.67721059e+00  4.15641897e+00  4.15641897e+00  8.92736989e+00
  1.17892578e+01  1.17892578e+01  2.81569600e+01  4.91114773e+01
  4.91114773e+01  9.00762158e+01  2.94464286e+02]
beta-B2u nocc = 1  HOMO = -0.426786552361046  LUMO = 0.0385522081619983
   mo_energy = [-4.26786552e-01  3.85522082e-02  1.83959034e-01  5.09596201e-01
  5.09596201e-01  7.42108549e-01  1.56918460e+00  1.56918460e+00
  2.67721059e+00  4.15641897e+00  4.15641897e+00  8.92736989e+00
  1.17892578e+01  1.17892578e+01  2.81569600e+01  4.91114773e+01
  4.91114773e+01  9.00762158e+01  2.94464286e+02]
beta-B3u nocc = 1  HOMO = -0.426786552361043  LUMO = 0.0385522081619954
   mo_energy = [-4.26786552e-01  3.85522082e-02  1.83959034e-01  5.09596201e-01
  5.09596201e-01  7.42108549e-01  1.56918460e+00  1.56918460e+00
  2.67721059e+00  4.15641897e+00  4.15641897e+00  8.92736989e+00
  1.17892578e+01  1.17892578e+01  2.81569600e+01  4.91114773e+01
  4.91114773e+01  9.00762158e+01  2.94464286e+02]
multiplicity <S^2> = 0.75  2S+1 = 2
E1 = -108.79341609504019  Ecoul = 34.07025644501458
cycle= 1 E= -74.7231596500256  delta_E= -0.427  |g|= 0.394  |ddm|= 0.606
    CPU time for cycle= 1     10.40 sec, wall time      3.49 sec
diis-norm(errvec)=0.556841
diis-c [-0.31007167  1.        ]
alpha HOMO (B2u) = 0.0169865812175942  LUMO (B1u) = 0.151165986657949
alpha irrep_nelec = [2, 0, 0, 0, 0, 1, 1, 1]
beta  irrep_nelec = [2, 0, 0, 0, 0, 0, 1, 1]
alpha-Ag nocc = 2  HOMO = -0.717287716603867  LUMO = 0.19215864314768
   mo_energy = [-1.97942845e+01 -7.17287717e-01  1.92158643e-01  3.45560404e-01
  3.48748108e-01  4.82205954e-01  8.74094664e-01  8.90257255e-01
  1.38125087e+00  1.73353746e+00  1.73784539e+00  1.75086984e+00
  2.02872038e+00  2.07497602e+00  4.35803216e+00  4.59136106e+00
  4.60345940e+00  4.64019986e+00  4.91211533e+00  4.98737795e+00
  1.14686963e+01  1.14904162e+01  1.15561425e+01  1.32120600e+01
  1.32968200e+01  1.51406452e+01  4.00999068e+01  4.01675412e+01
  5.09496396e+01  1.41088697e+02  1.41124264e+02  1.64911057e+02
  6.72688981e+02]
alpha-B1g nocc = 0
   mo_energy = [  0.34874811   0.89025726   1.73784539   1.75086984   2.07497602
   4.6034594    4.64019986   4.98737795  11.49041616  11.55614252
  13.29681999  40.16754117 141.12426398]
alpha-B2g nocc = 0
   mo_energy = [  0.34637242   0.87810141   1.73461319   1.74325187   2.03993751
   4.59437891   4.61868444   4.93036714  11.47411775  11.51769626
  13.23322835  40.11682799 141.09759672]
alpha-B3g nocc = 0
   mo_energy = [  0.34637242   0.87810141   1.73461319   1.74325187   2.03993751
   4.59437891   4.61868444   4.93036714  11.47411775  11.51769626
  13.23322835  40.11682799 141.09759672]
alpha-Au nocc = 0
   mo_energy = [ 0.74270855  1.94503383  4.71678658 12.56716828 50.09308424]
alpha-B1u nocc = 1  HOMO = -0.0520760857610519  LUMO = 0.151165986657949
   mo_energy = [-5.20760858e-02  1.51165987e-01  3.92580326e-01  7.39423179e-01
  7.42708552e-01  1.11206438e+00  1.93298190e+00  1.94503383e+00
  3.24577754e+00  4.68911765e+00  4.71678658e+00  9.68395655e+00
  1.25260572e+01  1.25671683e+01  2.90579779e+01  5.00593280e+01
  5.00930842e+01  9.10710202e+01  2.95504540e+02]
alpha-B2u nocc = 1  HOMO = 0.0169865812175942  LUMO = 0.152306932204155
   mo_energy = [1.69865812e-02 1.52306932e-01 4.02276664e-01 7.40244987e-01
 7.46834388e-01 1.14689686e+00 1.93598319e+00 1.96032121e+00
 3.30968298e+00 4.69599701e+00 4.75206904e+00 9.76103964e+00
 1.25363009e+01 1.26191369e+01 2.91260160e+01 5.00677634e+01
 5.01353345e+01 9.11144834e+01 2.95525081e+02]
alpha-B3u nocc = 1  HOMO = 0.0169865812175748  LUMO = 0.152306932204152
   mo_energy = [1.69865812e-02 1.52306932e-01 4.02276664e-01 7.40244987e-01
 7.46834388e-01 1.14689686e+00 1.93598319e+00 1.96032121e+00
 3.30968298e+00 4.69599701e+00 4.75206904e+00 9.76103964e+00
 1.25363009e+01 1.26191369e+01 2.91260160e+01 5.00677634e+01
 5.01353345e+01 9.11144834e+01 2.95525081e+02]
beta-Ag nocc = 2  HOMO = -0.569267206733005  LUMO = 0.192568915527319
   mo_energy = [-1.97618574e+01 -5.69267207e-01  1.92568916e-01  3.46291416e-01
  3.48822712e-01  4.89446557e-01  8.89855770e-01  8.91991564e-01
  1.40689348e+00  1.73702140e+00  1.74056086e+00  1.75126856e+00
  2.08286519e+00  2.09698264e+00  4.39565576e+00  4.60796595e+00
  4.61648246e+00  4.64216166e+00  4.99992091e+00  5.01094153e+00
  1.15029830e+01  1.15172488e+01  1.15601839e+01  1.32870763e+01
  1.33075735e+01  1.51695943e+01  4.01368962e+01  4.01735072e+01
  5.09632120e+01  1.41100007e+02  1.41126240e+02  1.64915613e+02
  6.72690138e+02]
beta-B1g nocc = 0
   mo_energy = [  0.34882271   0.89199156   1.74056086   1.75126856   2.08286519
   4.61648246   4.64216166   4.99992091  11.5172488   11.56018389
  13.30757351  40.17350715 141.12624031]
beta-B2g nocc = 0
   mo_energy = [  0.34691624   0.89021813   1.73790489   1.74500601   2.0928327
   4.61009236   4.62716276   5.00765524  11.50654713  11.53511429
  13.29211706  40.14605145 141.10656978]
beta-B3g nocc = 0
   mo_energy = [  0.34691624   0.89021813   1.73790489   1.74500601   2.0928327
   4.61009236   4.62716276   5.00765524  11.50654713  11.53511429
  13.29211706  40.14605145 141.10656978]
beta-Au nocc = 0
   mo_energy = [ 0.74356006  1.95325159  4.74187561 12.60227538 50.11354417]
beta-B1u nocc = 0
   mo_energy = [1.50557430e-01 3.59836143e-01 6.53454398e-01 7.40828050e-01
 7.43560061e-01 1.28237948e+00 1.94638114e+00 1.95325159e+00
 3.37945795e+00 4.72977114e+00 4.74187561e+00 9.77255715e+00
 1.25830396e+01 1.26022754e+01 2.91036561e+01 5.00926517e+01
 5.01135442e+01 9.10886311e+01 2.95509474e+02]
beta-B2u nocc = 1  HOMO = 0.0505498600579835  LUMO = 0.152589460568603
   mo_energy = [5.05498601e-02 1.52589461e-01 4.05375809e-01 7.41509663e-01
 7.46999989e-01 1.15762414e+00 1.94808674e+00 1.96195095e+00
 3.32659167e+00 4.73278439e+00 4.75716737e+00 9.77651970e+00
 1.25878404e+01 1.26264494e+01 2.91356471e+01 5.00978738e+01
 5.01396751e+01 9.11186196e+01 2.95526334e+02]
beta-B3u nocc = 1  HOMO = 0.0505498600580053  LUMO = 0.152589460568604
   mo_energy = [5.05498601e-02 1.52589461e-01 4.05375809e-01 7.41509663e-01
 7.46999989e-01 1.15762414e+00 1.94808674e+00 1.96195095e+00
 3.32659167e+00 4.73278439e+00 4.75716737e+00 9.77651970e+00
 1.25878404e+01 1.26264494e+01 2.91356471e+01 5.00978738e+01
 5.01396751e+01 9.11186196e+01 2.95526334e+02]
multiplicity <S^2> = 0.75499522  2S+1 = 2.004989
E1 = -105.49790327929904  Ecoul = 30.733389583081568
cycle= 2 E= -74.7645136962175  delta_E= -0.0414  |g|= 0.297  |ddm|= 0.257
    CPU time for cycle= 2     10.78 sec, wall time      3.62 sec
diis-norm(errvec)=0.420015
diis-c [-0.01271714  0.42593403  0.57406597]
alpha HOMO (B2u) = -0.125645527314677  LUMO (B1u) = 0.150448750567627
alpha irrep_nelec = [2, 0, 0, 0, 0, 1, 1, 1]
beta  irrep_nelec = [2, 0, 0, 0, 0, 0, 1, 1]
alpha-Ag nocc = 2  HOMO = -0.888941670279065  LUMO = 0.189972844803682
   mo_energy = [-2.02143397e+01 -8.88941670e-01  1.89972845e-01  3.42563274e-01
  3.46652847e-01  4.62141284e-01  8.49553918e-01  8.67681196e-01
  1.31153585e+00  1.71543757e+00  1.72033175e+00  1.73515030e+00
  1.94651228e+00  1.99363526e+00  4.18803795e+00  4.51864007e+00
  4.53065154e+00  4.56712682e+00  4.74183155e+00  4.81279640e+00
  1.12880670e+01  1.13078888e+01  1.13678267e+01  1.29347330e+01
  1.30102952e+01  1.48419167e+01  3.97306858e+01  3.97889292e+01
  5.05640712e+01  1.40664523e+02  1.40694489e+02  1.64480867e+02
  6.72235544e+02]
alpha-B1g nocc = 0
   mo_energy = [  0.34665285   0.8676812    1.72033175   1.7351503    1.99363526
   4.53065154   4.56712682   4.8127964   11.30788877  11.36782671
  13.01029522  39.78892915 140.69448871]
alpha-B2g nocc = 0
   mo_energy = [  0.34359742   0.85400162   1.71665943   1.72647873   1.95787769
   4.52163635   4.54576667   4.7590627   11.29301533  11.33277465
  12.95359499  39.74525092 140.67201796]
alpha-B3g nocc = 0
   mo_energy = [  0.34359742   0.85400162   1.71665943   1.72647873   1.95787769
   4.52163635   4.54576667   4.7590627   11.29301533  11.33277465
  12.95359499  39.74525092 140.67201796]
alpha-Au nocc = 0
   mo_energy = [ 0.73666672  1.90854903  4.60263307 12.32430488 49.71159531]
alpha-B1u nocc = 1  HOMO = -0.206342280602215  LUMO = 0.150448750567627
   mo_energy = [-2.06342281e-01  1.50448751e-01  3.80071667e-01  7.32610060e-01
  7.36666720e-01  1.04706689e+00  1.89571973e+00  1.90854903e+00
  3.08547294e+00  4.57602920e+00  4.60263307e+00  9.41734443e+00
  1.22874020e+01  1.23243049e+01  2.87047848e+01  4.96827411e+01
  4.97115953e+01  9.06607337e+01  2.95063078e+02]
alpha-B2u nocc = 1  HOMO = -0.125645527314677  LUMO = 0.151863508188178
   mo_energy = [-1.25645527e-01  1.51863508e-01  3.90652453e-01  7.33624331e-01
  7.41776525e-01  1.08277423e+00  1.89891214e+00  1.92487201e+00
  3.14660202e+00  4.58264338e+00  4.63656294e+00  9.48734349e+00
  1.22965989e+01  1.23709199e+01  2.87641544e+01  4.96899515e+01
  4.97477110e+01  9.06976763e+01  2.95080271e+02]
alpha-B3u nocc = 1  HOMO = -0.125645527314698  LUMO = 0.151863508188193
   mo_energy = [-1.25645527e-01  1.51863508e-01  3.90652453e-01  7.33624331e-01
  7.41776525e-01  1.08277423e+00  1.89891214e+00  1.92487201e+00
  3.14660202e+00  4.58264338e+00  4.63656294e+00  9.48734349e+00
  1.22965989e+01  1.23709199e+01  2.87641544e+01  4.96899515e+01
  4.97477110e+01  9.06976763e+01  2.95080271e+02]
beta-Ag nocc = 2  HOMO = -0.738102543505617  LUMO = 0.190288097999127
   mo_energy = [-2.01843789e+01 -7.38102544e-01  1.90288098e-01  3.43716736e-01
  3.46219843e-01  4.70380291e-01  8.68430517e-01  8.69080132e-01
  1.33744068e+00  1.71969330e+00  1.72350645e+00  1.73503445e+00
  2.00102335e+00  2.01728725e+00  4.22461345e+00  4.53622189e+00
  4.54426909e+00  4.56846943e+00  4.82585988e+00  4.83634962e+00
  1.13220539e+01  1.13344344e+01  1.13716875e+01  1.30048666e+01
  1.30217058e+01  1.48699195e+01  3.97649552e+01  3.97951719e+01
  5.05769965e+01  1.40674916e+02  1.40696511e+02  1.64485137e+02
  6.72236610e+02]
beta-B1g nocc = 0
   mo_energy = [  0.34621984   0.86843052   1.72350645   1.73503445   2.00102335
   4.54426909   4.56846943   4.82585988  11.33443441  11.37168749
  13.02170578  39.79517193 140.69651097]
beta-B2g nocc = 0
   mo_energy = [  0.34431731   0.8686685    1.72064516   1.72829391   2.01252606
   4.53823173   4.55434848   4.83324612  11.32514721  11.34993683
  13.00900576  39.77250493 140.68031566]
beta-B3g nocc = 0
   mo_energy = [  0.34431731   0.8686685    1.72064516   1.72829391   2.01252606
   4.53823173   4.55434848   4.83324612  11.32514721  11.34993683
  13.00900576  39.77250493 140.68031566]
beta-Au nocc = 0
   mo_energy = [ 0.73760272  1.91742535  4.62784428 12.35836912 49.73091799]
beta-B1u nocc = 0
   mo_energy = [1.50026323e-01 3.43822470e-01 5.40751209e-01 7.34554007e-01
 7.37602724e-01 1.16864342e+00 1.91085178e+00 1.91742535e+00
 3.20143434e+00 4.61730325e+00 4.62784428e+00 9.49906243e+00
 1.23423124e+01 1.23583691e+01 2.87472918e+01 4.97137073e+01
 4.97309180e+01 9.06769718e+01 2.95067583e+02]
beta-B2u nocc = 1  HOMO = -0.0862752886635576  LUMO = 0.151938644670476
   mo_energy = [-8.62752887e-02  1.51938645e-01  3.93373756e-01  7.35312062e-01
  7.41454501e-01  1.09376650e+00  1.91248333e+00  1.92574152e+00
  3.16374857e+00  4.61992868e+00  4.64114220e+00  9.50299412e+00
  1.23463196e+01  1.23785495e+01  2.87738107e+01  4.97180086e+01
  4.97524526e+01  9.07017472e+01  2.95081471e+02]
beta-B3u nocc = 1  HOMO = -0.0862752886635702  LUMO = 0.151938644670477
   mo_energy = [-8.62752887e-02  1.51938645e-01  3.93373756e-01  7.35312062e-01
  7.41454501e-01  1.09376650e+00  1.91248333e+00  1.92574152e+00
  3.16374857e+00  4.61992868e+00  4.64114220e+00  9.50299412e+00
  1.23463196e+01  1.23785495e+01  2.87738107e+01  4.97180086e+01
  4.97524526e+01  9.07017472e+01  2.95081471e+02]
multiplicity <S^2> = 0.75494049  2S+1 = 2.0049344
E1 = -106.91178950478727  Ecoul = 32.11622440865406
cycle= 3 E= -74.7955650961332  delta_E= -0.0311  |g|= 0.0243  |ddm|= 0.121
    CPU time for cycle= 3      2.05 sec, wall time      0.65 sec
diis-norm(errvec)=0.0343474
diis-c [-7.46689796e-04 -1.02713427e-01 -1.21266848e-01  1.22398027e+00]
alpha HOMO (B2u) = -0.132923581776455  LUMO (B1u) = 0.150466280424609
alpha irrep_nelec = [2, 0, 0, 0, 0, 1, 1, 1]
beta  irrep_nelec = [2, 0, 0, 0, 0, 0, 1, 1]
alpha-Ag nocc = 2  HOMO = -0.896343167628004  LUMO = 0.190241620885419
   mo_energy = [-2.02178440e+01 -8.96343168e-01  1.90241621e-01  3.42785632e-01
  3.46989585e-01  4.62692705e-01  8.49713496e-01  8.67791656e-01
  1.31058469e+00  1.71547423e+00  1.72047143e+00  1.73566328e+00
  1.94362281e+00  1.99184327e+00  4.18325925e+00  4.51635942e+00
  4.52828502e+00  4.56462809e+00  4.73472288e+00  4.80686223e+00
  1.12823572e+01  1.13016874e+01  1.13602735e+01  1.29277755e+01
  1.30023405e+01  1.48360328e+01  3.97269312e+01  3.97832757e+01
  5.05604245e+01  1.40663305e+02  1.40691991e+02  1.64479260e+02
  6.72234951e+02]
alpha-B1g nocc = 0
   mo_energy = [  0.34698959   0.86779166   1.72047143   1.73566328   1.99184327
   4.52828502   4.56462809   4.80686223  11.30168742  11.36027351
  13.00234052  39.78327567 140.69199108]
alpha-B2g nocc = 0
   mo_energy = [  0.34383464   0.85406478   1.7167209    1.72676174   1.95510789
   4.51933232   4.54332156   4.75212899  11.28718077  11.32598723
  12.94635654  39.74100311 140.67047475]
alpha-B3g nocc = 0
   mo_energy = [  0.34383464   0.85406478   1.7167209    1.72676174   1.95510789
   4.51933232   4.54332156   4.75212899  11.28718077  11.32598723
  12.94635654  39.74100311 140.67047475]
alpha-Au nocc = 0
   mo_energy = [ 0.73705178  1.90802442  4.59846813 12.3167569  49.70681966]
alpha-B1u nocc = 1  HOMO = -0.223474436013486  LUMO = 0.150466280424609
   mo_energy = [-2.23474436e-01  1.50466280e-01  3.79725925e-01  7.32874831e-01
  7.37051784e-01  1.04339567e+00  1.89512353e+00  1.90802442e+00
  3.07854051e+00  4.57196329e+00  4.59846813e+00  9.41097097e+00
  1.22805660e+01  1.23167569e+01  2.87010201e+01  4.96790320e+01
  4.97068197e+01  9.06592833e+01  2.95062635e+02]
alpha-B2u nocc = 1  HOMO = -0.132923581776455  LUMO = 0.15203575982946
   mo_energy = [-1.32923582e-01  1.52035760e-01  3.91750605e-01  7.33917657e-01
  7.42347952e-01  1.08205706e+00  1.89832815e+00  1.92454846e+00
  3.14180069e+00  4.57854626e+00  4.63239628e+00  9.48086301e+00
  1.22895806e+01  1.23625540e+01  2.87588352e+01  4.96859738e+01
  4.97416312e+01  9.06947620e+01  2.95079021e+02]
alpha-B3u nocc = 1  HOMO = -0.132923581776471  LUMO = 0.152035759829458
   mo_energy = [-1.32923582e-01  1.52035760e-01  3.91750605e-01  7.33917657e-01
  7.42347952e-01  1.08205706e+00  1.89832815e+00  1.92454846e+00
  3.14180069e+00  4.57854626e+00  4.63239628e+00  9.48086301e+00
  1.22895806e+01  1.23625540e+01  2.87588352e+01  4.96859738e+01
  4.97416312e+01  9.06947620e+01  2.95079021e+02]
beta-Ag nocc = 2  HOMO = -0.73787547651294  LUMO = 0.19042546370174
   mo_energy = [-2.01851299e+01 -7.37875477e-01  1.90425464e-01  3.43702566e-01
  3.46298253e-01  4.70254535e-01  8.66578235e-01  8.68158274e-01
  1.33738707e+00  1.71924293e+00  1.72311779e+00  1.73480932e+00
  1.99739399e+00  2.01591780e+00  4.22272294e+00  4.53394956e+00
  4.54165098e+00  4.56476145e+00  4.82119998e+00  4.83528401e+00
  1.13184996e+01  1.13298114e+01  1.13638635e+01  1.30031592e+01
  1.30159203e+01  1.48667736e+01  3.97637770e+01  3.97908271e+01
  5.05746446e+01  1.40674474e+02  1.40694450e+02  1.64483952e+02
  6.72236121e+02]
beta-B1g nocc = 0
   mo_energy = [  0.34629825   0.86657823   1.72311779   1.73480932   1.99739399
   4.54165098   4.56476145   4.82119998  11.32981141  11.36386355
  13.01592031  39.79082713 140.69445035]
beta-B2g nocc = 0
   mo_energy = [  0.34432624   0.86750047   1.72021045   1.72797804   2.0105535
   4.53587342   4.55128842   4.83126576  11.32132559  11.3439794
  13.00628305  39.77052528 140.67946489]
beta-B3g nocc = 0
   mo_energy = [  0.34432624   0.86750047   1.72021045   1.72797804   2.0105535
   4.53587342   4.55128842   4.83126576  11.32132559  11.3439794
  13.00628305  39.77052528 140.67946489]
beta-Au nocc = 0
   mo_energy = [ 0.73759862  1.91594821  4.62412018 12.35357324 49.72802939]
beta-B1u nocc = 0
   mo_energy = [1.50032090e-01 3.43486523e-01 5.41998808e-01 7.34451627e-01
 7.37598624e-01 1.16954123e+00 1.90959359e+00 1.91594821e+00
 3.20095960e+00 4.61475795e+00 4.62412018e+00 9.49837805e+00
 1.23396136e+01 1.23535732e+01 2.87467016e+01 4.97124086e+01
 4.97280294e+01 9.06767019e+01 2.95067460e+02]
beta-B2u nocc = 1  HOMO = -0.0915023235876138  LUMO = 0.152277208223744
   mo_energy = [-9.15023236e-02  1.52277208e-01  3.95456392e-01  7.35233515e-01
  7.41562044e-01  1.09472829e+00  1.91117330e+00  1.92392192e+00
  3.16089899e+00  4.61709490e+00  4.63584745e+00  9.49855311e+00
  1.23430985e+01  1.23711022e+01  2.87699167e+01  4.97163114e+01
  4.97475907e+01  9.06994542e+01  2.95080402e+02]
beta-B3u nocc = 1  HOMO = -0.0915023235875931  LUMO = 0.152277208223754
   mo_energy = [-9.15023236e-02  1.52277208e-01  3.95456392e-01  7.35233515e-01
  7.41562044e-01  1.09472829e+00  1.91117330e+00  1.92392192e+00
  3.16089899e+00  4.61709490e+00  4.63584745e+00  9.49855311e+00
  1.23430985e+01  1.23711022e+01  2.87699167e+01  4.97163114e+01
  4.97475907e+01  9.06994542e+01  2.95080402e+02]
multiplicity <S^2> = 0.75804543  2S+1 = 2.0080293
E1 = -106.86967057072937  Ecoul = 32.07343765420186
cycle= 4 E= -74.7962329165275  delta_E= -0.000668  |g|= 0.011  |ddm|= 0.0219
    CPU time for cycle= 4      0.41 sec, wall time      0.10 sec
diis-norm(errvec)=0.0154984
diis-c [-1.63198690e-04  4.06436742e-02  3.87300205e-02 -5.98468960e-01
  1.51909527e+00]
alpha HOMO (B3u) = -0.136078975830764  LUMO (B1u) = 0.150363180291222
alpha irrep_nelec = [2, 0, 0, 0, 0, 1, 1, 1]
beta  irrep_nelec = [2, 0, 0, 0, 0, 0, 1, 1]
alpha-Ag nocc = 2  HOMO = -0.901351400414062  LUMO = 0.190194942360757
   mo_energy = [-2.02203189e+01 -9.01351400e-01  1.90194942e-01  3.42647403e-01
  3.47010802e-01  4.62327456e-01  8.49409694e-01  8.67559331e-01
  1.30884806e+00  1.71447341e+00  1.71958080e+00  1.73517563e+00
  1.94163820e+00  1.99024088e+00  4.18016067e+00  4.51432210e+00
  4.52626002e+00  4.56277239e+00  4.73095854e+00  4.80332502e+00
  1.12800039e+01  1.12990929e+01  1.13570979e+01  1.29250422e+01
  1.29988506e+01  1.48333837e+01  3.97257650e+01  3.97808478e+01
  5.05587028e+01  1.40662428e+02  1.40690236e+02  1.64477707e+02
  6.72232972e+02]
alpha-B1g nocc = 0
   mo_energy = [  0.3470108    0.86755933   1.7195808    1.73517563   1.99024088
   4.52626002   4.56277239   4.80332502  11.29909285  11.3570979
  12.99885057  39.78084782 140.69023582]
alpha-B2g nocc = 0
   mo_energy = [  0.34372341   0.8537216    1.71574652   1.72602561   1.95316912
   4.51729613   4.54134202   4.74838393  11.284765    11.32312392
  12.94339689  39.73950084 140.66937203]
alpha-B3g nocc = 0
   mo_energy = [  0.34372341   0.8537216    1.71574652   1.72602561   1.95316912
   4.51729613   4.54134202   4.74838393  11.284765    11.32312392
  12.94339689  39.73950084 140.66937203]
alpha-Au nocc = 0
   mo_energy = [ 0.73677352  1.90693021  4.59601125 12.31373002 49.70513389]
alpha-B1u nocc = 1  HOMO = -0.231805879655161  LUMO = 0.150363180291222
   mo_energy = [-2.31805880e-01  1.50363180e-01  3.78660212e-01  7.32453870e-01
  7.36773519e-01  1.04010540e+00  1.89391463e+00  1.90693021e+00
  3.07445888e+00  4.56956186e+00  4.59601125e+00  9.40813747e+00
  1.22780183e+01  1.23137300e+01  2.86997063e+01  4.96780643e+01
  4.97051339e+01  9.06584731e+01  2.95061368e+02]
alpha-B2u nocc = 1  HOMO = -0.136078975830766  LUMO = 0.15201240998115
   mo_energy = [-1.36078976e-01  1.52012410e-01  3.91088461e-01  7.33530330e-01
  7.42281251e-01  1.07998646e+00  1.89714299e+00  1.92368581e+00
  3.13874988e+00  4.57612582e+00  4.62996890e+00  9.47778046e+00
  1.22869083e+01  1.23590108e+01  2.87564540e+01  4.96848244e+01
  4.97390816e+01  9.06929719e+01  2.95077218e+02]
alpha-B3u nocc = 1  HOMO = -0.136078975830764  LUMO = 0.152012409981143
   mo_energy = [-1.36078976e-01  1.52012410e-01  3.91088461e-01  7.33530330e-01
  7.42281251e-01  1.07998646e+00  1.89714299e+00  1.92368581e+00
  3.13874988e+00  4.57612582e+00  4.62996890e+00  9.47778046e+00
  1.22869083e+01  1.23590108e+01  2.87564540e+01  4.96848244e+01
  4.97390816e+01  9.06929719e+01  2.95077218e+02]
beta-Ag nocc = 2  HOMO = -0.734997244264881  LUMO = 0.190110365096011
   mo_energy = [-2.01844999e+01 -7.34997244e-01  1.90110365e-01  3.43283671e-01
  3.45956396e-01  4.69062701e-01  8.65011179e-01  8.66523081e-01
  1.33633733e+00  1.71774596e+00  1.72174077e+00  1.73377933e+00
  1.99576185e+00  2.01414188e+00  4.22224079e+00  4.53167169e+00
  4.53938548e+00  4.56251180e+00  4.82056712e+00  4.83500583e+00
  1.13173309e+01  1.13283533e+01  1.13615542e+01  1.30037320e+01
  1.30154180e+01  1.48666535e+01  3.97642843e+01  3.97899713e+01
  5.05742756e+01  1.40674200e+02  1.40693282e+02  1.64483033e+02
  6.72234450e+02]
beta-B1g nocc = 0
   mo_energy = [  0.3459564    0.86501118   1.72174077   1.73377933   1.99576185
   4.53938548   4.5625118    4.82056712  11.32835334  11.3615542
  13.01541805  39.78997133 140.69328159]
beta-B2g nocc = 0
   mo_energy = [  0.343933     0.86595944   1.71874358   1.72674865   2.0090002
   4.53359872   4.54903561   4.83101316  11.32008423  11.34216402
  13.00660232  39.77068316 140.67896323]
beta-B3g nocc = 0
   mo_energy = [  0.343933     0.86595944   1.71874358   1.72674865   2.0090002
   4.53359872   4.54903561   4.83101316  11.32008423  11.34216402
  13.00660232  39.77068316 140.67896323]
beta-Au nocc = 0
   mo_energy = [ 0.73692618  1.91412701  4.62223093 12.35293621 49.72792728]
beta-B1u nocc = 0
   mo_energy = [1.49933489e-01 3.42584522e-01 5.41876710e-01 7.33646031e-01
 7.36926177e-01 1.16913267e+00 1.90761890e+00 1.91412701e+00
 3.20044892e+00 4.61299326e+00 4.62223093e+00 9.49858777e+00
 1.23395769e+01 1.23529362e+01 2.87472468e+01 4.97130603e+01
 4.97279273e+01 9.06767833e+01 2.95066609e+02]
beta-B2u nocc = 1  HOMO = -0.0877898388894784  LUMO = 0.15226441283545
   mo_energy = [-8.77898389e-02  1.52264413e-01  3.95272844e-01  7.34462068e-01
  7.41041961e-01  1.09450285e+00  1.90924201e+00  1.92222171e+00
  3.16065224e+00  4.61530565e+00  4.63370593e+00  9.49809014e+00
  1.23429134e+01  1.23696871e+01  2.87692408e+01  4.97167737e+01
  4.97465600e+01  9.06985162e+01  2.95079007e+02]
beta-B3u nocc = 1  HOMO = -0.0877898388895088  LUMO = 0.152264412835432
   mo_energy = [-8.77898389e-02  1.52264413e-01  3.95272844e-01  7.34462068e-01
  7.41041961e-01  1.09450285e+00  1.90924201e+00  1.92222171e+00
  3.16065224e+00  4.61530565e+00  4.63370593e+00  9.49809014e+00
  1.23429134e+01  1.23696871e+01  2.87692408e+01  4.97167737e+01
  4.97465600e+01  9.06985162e+01  2.95079007e+02]
multiplicity <S^2> = 0.76124596  2S+1 = 2.0112145
E1 = -106.87279071090319  Ecoul = 32.07630220908096
cycle= 5 E= -74.7964885018222  delta_E= -0.000256  |g|= 0.00623  |ddm|= 0.0157
    CPU time for cycle= 5      0.42 sec, wall time      0.10 sec
diis-norm(errvec)=0.00880457
diis-c [-3.46975182e-05 -6.70418886e-03  1.18505114e-04  2.04570101e-01
 -1.28711294e+00  2.08912853e+00]
alpha HOMO (B3u) = -0.139732827502362  LUMO (B1u) = 0.15032113072508
alpha irrep_nelec = [2, 0, 0, 0, 0, 1, 1, 1]
beta  irrep_nelec = [2, 0, 0, 0, 0, 0, 1, 1]
alpha-Ag nocc = 2  HOMO = -0.905209061062616  LUMO = 0.19032452136987
   mo_energy = [-2.02213707e+01 -9.05209061e-01  1.90324521e-01  3.42717038e-01
  3.47230187e-01  4.62790318e-01  8.49992913e-01  8.68262173e-01
  1.30857185e+00  1.71448094e+00  1.71968447e+00  1.73558862e+00
  1.94155418e+00  1.99008115e+00  4.17909354e+00  4.51443996e+00
  4.52640062e+00  4.56299123e+00  4.72974568e+00  4.80166863e+00
  1.12801153e+01  1.12989875e+01  1.13563306e+01  1.29243817e+01
  1.29971399e+01  1.48325309e+01  3.97259954e+01  3.97798609e+01
  5.05584793e+01  1.40662969e+02  1.40690006e+02  1.64477864e+02
  6.72233331e+02]
alpha-B1g nocc = 0
   mo_energy = [  0.34723019   0.86826217   1.71968447   1.73558862   1.99008115
   4.52640062   4.56299123   4.80166863  11.29898753  11.3563306
  12.99713992  39.77986093 140.69000624]
alpha-B2g nocc = 0
   mo_energy = [  0.34382723   0.85431638   1.71577774   1.72625438   1.9530545
   4.51741955   4.5415132    4.74706561  11.28482241  11.32274496
  12.9424742   39.73942707 140.66972037]
alpha-B3g nocc = 0
   mo_energy = [  0.34382723   0.85431638   1.71577774   1.72625438   1.9530545
   4.51741955   4.5415132    4.74706561  11.28482241  11.32274496
  12.9424742   39.73942707 140.66972037]
alpha-Au nocc = 0
   mo_energy = [ 0.73693317  1.90726274  4.5958477  12.31291228 49.70478364]
alpha-B1u nocc = 1  HOMO = -0.236343588544503  LUMO = 0.15032113072508
   mo_energy = [-2.36343589e-01  1.50321131e-01  3.78308727e-01  7.32494648e-01
  7.36933165e-01  1.03890692e+00  1.89414330e+00  1.90726274e+00
  3.07309571e+00  4.56951905e+00  4.59584770e+00  9.40759239e+00
  1.22777192e+01  1.23129123e+01  2.87000064e+01  4.96783684e+01
  4.97047836e+01  9.06590903e+01  2.95061958e+02]
alpha-B2u nocc = 1  HOMO = -0.139732827502369  LUMO = 0.152027471831525
   mo_energy = [-1.39732828e-01  1.52027472e-01  3.90983410e-01  7.33600215e-01
  7.42600228e-01  1.07925710e+00  1.89739634e+00  1.92417169e+00
  3.13747891e+00  4.57605252e+00  4.62966004e+00  9.47652367e+00
  1.22864803e+01  1.23575314e+01  2.87556504e+01  4.96849651e+01
  4.97379103e+01  9.06927046e+01  2.95077342e+02]
alpha-B3u nocc = 1  HOMO = -0.139732827502362  LUMO = 0.152027471831518
   mo_energy = [-1.39732828e-01  1.52027472e-01  3.90983410e-01  7.33600215e-01
  7.42600228e-01  1.07925710e+00  1.89739634e+00  1.92417169e+00
  3.13747891e+00  4.57605252e+00  4.62966004e+00  9.47652367e+00
  1.22864803e+01  1.23575314e+01  2.87556504e+01  4.96849651e+01
  4.97379103e+01  9.06927046e+01  2.95077342e+02]
beta-Ag nocc = 2  HOMO = -0.731014212197394  LUMO = 0.189922607993867
   mo_energy = [-2.01825828e+01 -7.31014212e-01  1.89922608e-01  3.43055186e-01
  3.45747650e-01  4.68633420e-01  8.64281054e-01  8.65840579e-01
  1.33684820e+00  1.71725056e+00  1.72132933e+00  1.73361429e+00
  1.99613362e+00  2.01420153e+00  4.22382953e+00  4.53152604e+00
  4.53928430e+00  4.56253126e+00  4.82267117e+00  4.83677170e+00
  1.13184621e+01  1.13293343e+01  1.13620774e+01  1.30059305e+01
  1.30171951e+01  1.48683008e+01  3.97659781e+01  3.97907512e+01
  5.05753632e+01  1.40675270e+02  1.40693671e+02  1.64483786e+02
  6.72235090e+02]
beta-B1g nocc = 0
   mo_energy = [  0.34574765   0.86428105   1.72132933   1.73361429   1.99613362
   4.5392843    4.56253126   4.82267117  11.32933435  11.3620774
  13.01719507  39.79075123 140.69367101]
beta-B2g nocc = 0
   mo_energy = [  0.34371126   0.86527455   1.71826922   1.72644115   2.00915118
   4.53346436   4.54898723   4.83287061  11.32117799  11.34295562
  13.00869503  39.77214812 140.67986323]
beta-B3g nocc = 0
   mo_energy = [  0.34371126   0.86527455   1.71826922   1.72644115   2.00915118
   4.53346436   4.54898723   4.83287061  11.32117799  11.34295562
  13.00869503  39.77214812 140.67986323]
beta-Au nocc = 0
   mo_energy = [ 0.73663924  1.91370514  4.62268951 12.35452088 49.72914373]
beta-B1u nocc = 0
   mo_energy = [1.49875739e-01 3.42199567e-01 5.42647484e-01 7.33283190e-01
 7.36639241e-01 1.16989492e+00 1.90709232e+00 1.91370514e+00
 3.20156187e+00 4.61345238e+00 4.62268951e+00 9.50034060e+00
 1.23414734e+01 1.23545209e+01 2.87490407e+01 4.97148060e+01
 4.97291437e+01 9.06781421e+01 2.95067556e+02]
beta-B2u nocc = 1  HOMO = -0.0830471002595496  LUMO = 0.152352564939145
   mo_energy = [-8.30471003e-02  1.52352565e-01  3.96029712e-01  7.34118189e-01
  7.40845951e-01  1.09627480e+00  1.90874202e+00  1.92192011e+00
  3.16279221e+00  4.61576464e+00  4.63415892e+00  9.49983345e+00
  1.23447318e+01  1.23708826e+01  2.87702869e+01  4.97183871e+01
  4.97471151e+01  9.06991219e+01  2.95079524e+02]
beta-B3u nocc = 1  HOMO = -0.0830471002595467  LUMO = 0.152352564939141
   mo_energy = [-8.30471003e-02  1.52352565e-01  3.96029712e-01  7.34118189e-01
  7.40845951e-01  1.09627480e+00  1.90874202e+00  1.92192011e+00
  3.16279221e+00  4.61576464e+00  4.63415892e+00  9.49983345e+00
  1.23447318e+01  1.23708826e+01  2.87702869e+01  4.97183871e+01
  4.97471151e+01  9.06991219e+01  2.95079524e+02]
multiplicity <S^2> = 0.76621395  2S+1 = 2.0161488
E1 = -106.85634565328202  Ecoul = 32.059714063940405
cycle= 6 E= -74.7966315893416  delta_E= -0.000143  |g|= 0.0032  |ddm|= 0.0142
    CPU time for cycle= 6      0.41 sec, wall time      0.10 sec
diis-norm(errvec)=0.00453044
diis-c [-7.66953930e-06  8.78195476e-03 -2.29645179e-03 -8.49742152e-02
  6.44662009e-01 -1.53817835e+00  1.97200506e+00]
alpha HOMO (B2u) = -0.144172007252353  LUMO (B1u) = 0.150296517306397
alpha irrep_nelec = [2, 0, 0, 0, 0, 1, 1, 1]
beta  irrep_nelec = [2, 0, 0, 0, 0, 0, 1, 1]
alpha-Ag nocc = 2  HOMO = -0.909162412342946  LUMO = 0.190357416215026
   mo_energy = [-2.02244647e+01 -9.09162412e-01  1.90357416e-01  3.42678996e-01
  3.47305671e-01  4.62670012e-01  8.49725025e-01  8.68200511e-01
  1.30737531e+00  1.71406992e+00  1.71931225e+00  1.73532140e+00
  1.94028465e+00  1.98856651e+00  4.17662524e+00  4.51320982e+00
  4.52516027e+00  4.56168580e+00  4.72728174e+00  4.79850521e+00
  1.12779206e+01  1.12966864e+01  1.13536689e+01  1.29215922e+01
  1.29936440e+01  1.48296075e+01  3.97234197e+01  3.97768085e+01
  5.05558120e+01  1.40660632e+02  1.40687453e+02  1.64475476e+02
  6.72231153e+02]
alpha-B1g nocc = 0
   mo_energy = [  0.34730567   0.86820051   1.71931225   1.7353214    1.98856651
   4.52516027   4.5616858    4.79850521  11.29668639  11.35366894
  12.99364404  39.77680854 140.68745287]
alpha-B2g nocc = 0
   mo_energy = [  0.34382176   0.85411191   1.71537659   1.72592807   1.95174493
   4.51618737   4.54025224   4.74445344  11.28260174  11.32030131
  12.93951574  39.73673585 140.66733044]
alpha-B3g nocc = 0
   mo_energy = [  0.34382176   0.85411191   1.71537659   1.72592807   1.95174493
   4.51618737   4.54025224   4.74445344  11.28260174  11.32030131
  12.93951574  39.73673585 140.66733044]
alpha-Au nocc = 0
   mo_energy = [ 0.73685701  1.90666217  4.59405325 12.31002661 49.70195739]
alpha-B1u nocc = 1  HOMO = -0.238888173599778  LUMO = 0.150296517306397
   mo_energy = [-2.38888174e-01  1.50296517e-01  3.78053179e-01  7.32352568e-01
  7.36857012e-01  1.03783514e+00  1.89349571e+00  1.90666217e+00
  3.07107872e+00  4.56784467e+00  4.59405325e+00  9.40513610e+00
  1.22751110e+01  1.23100266e+01  2.86975385e+01  4.96757662e+01
  4.97019574e+01  9.06567530e+01  2.95059749e+02]
alpha-B2u nocc = 1  HOMO = -0.144172007252353  LUMO = 0.152013088906353
   mo_energy = [-1.44172007e-01  1.52013089e-01  3.90581237e-01  7.33475013e-01
  7.42600576e-01  1.07765536e+00  1.89676144e+00  1.92361202e+00
  3.13471069e+00  4.57434980e+00  4.62768286e+00  9.47335900e+00
  1.22838043e+01  1.23542718e+01  2.87526771e+01  4.96823074e+01
  4.97347970e+01  9.06900918e+01  2.95075017e+02]
alpha-B3u nocc = 1  HOMO = -0.144172007252357  LUMO = 0.152013088906362
   mo_energy = [-1.44172007e-01  1.52013089e-01  3.90581237e-01  7.33475013e-01
  7.42600576e-01  1.07765536e+00  1.89676144e+00  1.92361202e+00
  3.13471069e+00  4.57434980e+00  4.62768286e+00  9.47335900e+00
  1.22838043e+01  1.23542718e+01  2.87526771e+01  4.96823074e+01
  4.97347970e+01  9.06900918e+01  2.95075017e+02]
beta-Ag nocc = 2  HOMO = -0.730526285441645  LUMO = 0.189703121827141
   mo_energy = [-2.01841469e+01 -7.30526285e-01  1.89703122e-01  3.42858547e-01
  3.45473135e-01  4.67943758e-01  8.63346738e-01  8.65088178e-01
  1.33604388e+00  1.71660903e+00  1.72068756e+00  1.73297615e+00
  1.99527335e+00  2.01302475e+00  4.22274548e+00  4.53020438e+00
  4.53796372e+00  4.56121793e+00  4.82203329e+00  4.83551564e+00
  1.13167262e+01  1.13275993e+01  1.13603385e+01  1.30043490e+01
  1.30159277e+01  1.48666796e+01  3.97640380e+01  3.97888293e+01
  5.05733624e+01  1.40673162e+02  1.40691495e+02  1.64481679e+02
  6.72233031e+02]
beta-B1g nocc = 0
   mo_energy = [  0.34547313   0.86334674   1.72068756   1.73297615   1.99527335
   4.53796372   4.56121793   4.82203329  11.32759928  11.36033845
  13.01592771  39.78882929 140.69149478]
beta-B2g nocc = 0
   mo_energy = [  0.34349311   0.86445689   1.71762758   1.72579992   2.0080309
   4.532143     4.54766814   4.83176895  11.31944242  11.34121995
  13.00719405  39.77021485 140.677739  ]
beta-B3g nocc = 0
   mo_energy = [  0.34349311   0.86445689   1.71762758   1.72579992   2.0080309
   4.532143     4.54766814   4.83176895  11.31944242  11.34121995
  13.00719405  39.77021485 140.677739  ]
beta-Au nocc = 0
   mo_energy = [ 0.73627673  1.91273596  4.62130318 12.35293919 49.72716924]
beta-B1u nocc = 0
   mo_energy = [1.49833952e-01 3.41648396e-01 5.41540705e-01 7.32935745e-01
 7.36276728e-01 1.16896706e+00 1.90614026e+00 1.91273596e+00
 3.20016307e+00 4.61201517e+00 4.62130318e+00 9.49862774e+00
 1.23398262e+01 1.23529392e+01 2.87471113e+01 4.97128505e+01
 4.97271692e+01 9.06760846e+01 2.95065482e+02]
beta-B2u nocc = 1  HOMO = -0.0811660463071209  LUMO = 0.152367110146513
   mo_energy = [-8.11660463e-02  1.52367110e-01  3.96104194e-01  7.33766343e-01
  7.40469802e-01  1.09626795e+00  1.90778477e+00  1.92094641e+00
  3.16225610e+00  4.61433908e+00  4.63285638e+00  9.49856660e+00
  1.23431010e+01  1.23693839e+01  2.87684357e+01  4.97164272e+01
  4.97451129e+01  9.06970052e+01  2.95077393e+02]
beta-B3u nocc = 1  HOMO = -0.081166046307103  LUMO = 0.152367110146505
   mo_energy = [-8.11660463e-02  1.52367110e-01  3.96104194e-01  7.33766343e-01
  7.40469802e-01  1.09626795e+00  1.90778477e+00  1.92094641e+00
  3.16225610e+00  4.61433908e+00  4.63285638e+00  9.49856660e+00
  1.23431010e+01  1.23693839e+01  2.87684357e+01  4.97164272e+01
  4.97451129e+01  9.06970052e+01  2.95077393e+02]
multiplicity <S^2> = 0.7703358  2S+1 = 2.0202335
E1 = -106.85616726881221  Ecoul = 32.059495244631044
cycle= 7 E= -74.7966720241812  delta_E= -4.04e-05  |g|= 0.00121  |ddm|= 0.00739
    CPU time for cycle= 7      0.40 sec, wall time      0.10 sec
diis-norm(errvec)=0.00171471
diis-c [-5.03006934e-07 -3.67250055e-03  3.74037990e-03  1.36295139e-02
 -1.58170872e-01  5.51864395e-01 -1.41157388e+00  2.00418296e+00]
alpha HOMO (B2u) = -0.14635334448096  LUMO (B1u) = 0.150294449190456
alpha irrep_nelec = [2, 0, 0, 0, 0, 1, 1, 1]
beta  irrep_nelec = [2, 0, 0, 0, 0, 0, 1, 1]
alpha-Ag nocc = 2  HOMO = -0.910623705709875  LUMO = 0.190388552575485
   mo_energy = [-2.02253160e+01 -9.10623706e-01  1.90388553e-01  3.42671600e-01
  3.47354639e-01  4.62700901e-01  8.49647528e-01  8.68284336e-01
  1.30703487e+00  1.71395003e+00  1.71919929e+00  1.73522686e+00
  1.93992001e+00  1.98807974e+00  4.17589734e+00  4.51287121e+00
  4.52481450e+00  4.56131393e+00  4.72659538e+00  4.79738563e+00
  1.12773445e+01  1.12960847e+01  1.13529827e+01  1.29208721e+01
  1.29925868e+01  1.48288360e+01  3.97227848e+01  3.97760534e+01
  5.05551716e+01  1.40660053e+02  1.40686866e+02  1.64474887e+02
  6.72230542e+02]
alpha-B1g nocc = 0
   mo_energy = [  0.34735464   0.86828434   1.71919929   1.73522686   1.98807974
   4.5248145    4.56131393   4.79738563  11.29608466  11.35298275
  12.99258677  39.77605339 140.68686596]
alpha-B2g nocc = 0
   mo_energy = [  0.34383169   0.85408159   1.71525847   1.72582318   1.95135428
   4.51584704   4.53989646   4.74366662  11.28201933  11.31966582
  12.93871221  39.73607226 140.66674999]
alpha-B3g nocc = 0
   mo_energy = [  0.34383169   0.85408159   1.71525847   1.72582318   1.95135428
   4.51584704   4.53989646   4.74366662  11.28201933  11.31966582
  12.93871221  39.73607226 140.66674999]
alpha-Au nocc = 0
   mo_energy = [ 0.73684172  1.90649979  4.59354127 12.30923845 49.70127608]
alpha-B1u nocc = 1  HOMO = -0.239202558878473  LUMO = 0.150294449190456
   mo_energy = [-2.39202559e-01  1.50294449e-01  3.78033999e-01  7.32315387e-01
  7.36841717e-01  1.03767092e+00  1.89331445e+00  1.90649979e+00
  3.07068011e+00  4.56738279e+00  4.59354127e+00  9.40457511e+00
  1.22744184e+01  1.23092384e+01  2.86969425e+01  4.96751226e+01
  4.97012761e+01  9.06561707e+01  2.95059156e+02]
alpha-B2u nocc = 1  HOMO = -0.14635334448096  LUMO = 0.152004723704241
   mo_energy = [-1.46353344e-01  1.52004724e-01  3.90395984e-01  7.33443497e-01
  7.42610087e-01  1.07695577e+00  1.89658515e+00  1.92346917e+00
  3.13367252e+00  4.57387557e+00  4.62710467e+00  9.47238018e+00
  1.22830881e+01  1.23533595e+01  2.87519175e+01  4.96816546e+01
  4.97340657e+01  9.06894813e+01  2.95074432e+02]
alpha-B3u nocc = 1  HOMO = -0.146353344480965  LUMO = 0.152004723704228
   mo_energy = [-1.46353344e-01  1.52004724e-01  3.90395984e-01  7.33443497e-01
  7.42610087e-01  1.07695577e+00  1.89658515e+00  1.92346917e+00
  3.13367252e+00  4.57387557e+00  4.62710467e+00  9.47238018e+00
  1.22830881e+01  1.23533595e+01  2.87519175e+01  4.96816546e+01
  4.97340657e+01  9.06894813e+01  2.95074432e+02]
beta-Ag nocc = 2  HOMO = -0.729876155522736  LUMO = 0.189595521842996
   mo_energy = [-2.01842900e+01 -7.29876156e-01  1.89595522e-01  3.42778959e-01
  3.45321088e-01  4.67686416e-01  8.62932622e-01  8.64834114e-01
  1.33590118e+00  1.71639300e+00  1.72044790e+00  1.73266960e+00
  1.99511098e+00  2.01274782e+00  4.22268957e+00  4.52984938e+00
  4.53759711e+00  4.56082149e+00  4.82227385e+00  4.83534272e+00
  1.13163678e+01  1.13272798e+01  1.13601346e+01  1.30041110e+01
  1.30160932e+01  1.48665308e+01  3.97636535e+01  3.97887039e+01
  5.05730306e+01  1.40672669e+02  1.40691111e+02  1.64481208e+02
  6.72232461e+02]
beta-B1g nocc = 0
   mo_energy = [  0.34532109   0.86293262   1.7204479    1.7326696    1.99511098
   4.53759711   4.56082149   4.82227385  11.32727983  11.36013462
  13.01609317  39.78870395 140.69111096]
beta-B2g nocc = 0
   mo_energy = [  0.34339466   0.86415766   1.71740558   1.72553162   2.00778108
   4.53178506   4.54728789   4.83170279  11.3190938   11.34094885
  13.00705698  39.7698962  140.67727353]
beta-B3g nocc = 0
   mo_energy = [  0.34339466   0.86415766   1.71740558   1.72553162   2.00778108
   4.53178506   4.54728789   4.83170279  11.3190938   11.34094885
  13.00705698  39.7698962  140.67727353]
beta-Au nocc = 0
   mo_energy = [ 0.73611289  1.91240004  4.62101297 12.35280238 49.72691194]
beta-B1u nocc = 0
   mo_energy = [1.49819382e-01 3.41477290e-01 5.41340202e-01 7.32806501e-01
 7.36112895e-01 1.16878729e+00 1.90584759e+00 1.91240004e+00
 3.19987036e+00 4.61168852e+00 4.62101297e+00 9.49826020e+00
 1.23395526e+01 1.23528024e+01 2.87466759e+01 4.97124737e+01
[...]
  3.16251055e+00  4.61404952e+00  4.63264254e+00  9.49868258e+00
  1.23428944e+01  1.23694829e+01  2.87683370e+01  4.97161108e+01
  4.97450717e+01  9.06967068e+01  2.95076958e+02]
beta-B3u nocc = 1  HOMO = -0.0798996183475091  LUMO = 0.152379946900872
   mo_energy = [-7.98996183e-02  1.52379947e-01  3.96229007e-01  7.33628238e-01
  7.40258779e-01  1.09651760e+00  1.90749165e+00  1.92055705e+00
  3.16251055e+00  4.61404952e+00  4.63264254e+00  9.49868258e+00
  1.23428944e+01  1.23694829e+01  2.87683370e+01  4.97161108e+01
  4.97450717e+01  9.06967068e+01  2.95076958e+02]
multiplicity <S^2> = 0.77311404  2S+1 = 2.022982
E1 = -106.8516661932867  Ecoul = 32.0549872203121
cycle= 145 E= -74.7966789729746  delta_E= 1.42e-13  |g|= 2.96e-12  |ddm|= 3e-12
    CPU time for cycle= 145      0.38 sec, wall time      0.10 sec
diis-norm(errvec)=4.15355e-12
Linear dependence found in DIIS error vectors.
diis-c [-2.89052492e-16  1.25000000e-01  1.25000000e-01  1.25000000e-01
  1.25000000e-01  1.25000000e-01  1.25000000e-01  1.25000000e-01
  1.25000000e-01]
alpha HOMO (B2u) = -0.146405192276839  LUMO (B1u) = 0.150295258515421
alpha irrep_nelec = [2, 0, 0, 0, 0, 1, 1, 1]
beta  irrep_nelec = [2, 0, 0, 0, 0, 0, 1, 1]
alpha-Ag nocc = 2  HOMO = -0.910629055308233  LUMO = 0.190390806044498
   mo_energy = [-2.02252866e+01 -9.10629055e-01  1.90390806e-01  3.42673308e-01
  3.47357960e-01  4.62710005e-01  8.49652624e-01  8.68304589e-01
  1.30704672e+00  1.71395556e+00  1.71920347e+00  1.73523219e+00
  1.93992829e+00  1.98809809e+00  4.17591428e+00  4.51288910e+00
  4.52483164e+00  4.56133642e+00  4.72661974e+00  4.79738794e+00
  1.12773687e+01  1.12961100e+01  1.13530169e+01  1.29208997e+01
  1.29926011e+01  1.48288611e+01  3.97228128e+01  3.97760893e+01
  5.05552080e+01  1.40660094e+02  1.40686919e+02  1.64474937e+02
  6.72230607e+02]
alpha-B1g nocc = 0
   mo_energy = [  0.34735796   0.86830459   1.71920347   1.73523219   1.98809809
   4.52483164   4.56133642   4.79738794  11.29611003  11.3530169
  12.99260111  39.77608935 140.68691865]
alpha-B2g nocc = 0
   mo_energy = [  0.34383316   0.85408744   1.71526359   1.72582685   1.95136169
   4.51586463   4.53991438   4.74368388  11.28204377  11.31969384
  12.93873538  39.73610195 140.66679384]
alpha-B3g nocc = 0
   mo_energy = [  0.34383316   0.85408744   1.71526359   1.72582685   1.95136169
   4.51586463   4.53991438   4.74368388  11.28204377  11.31969384
  12.93873538  39.73610195 140.66679384]
alpha-Au nocc = 0
   mo_energy = [ 0.73684369  1.9065096   4.59356004 12.309261   49.70130684]
alpha-B1u nocc = 1  HOMO = -0.239148119877614  LUMO = 0.150295258515421
   mo_energy = [-2.39148120e-01  1.50295259e-01  3.78043566e-01  7.32318110e-01
  7.36843694e-01  1.03770526e+00  1.89332360e+00  1.90650960e+00
  3.07072597e+00  4.56740133e+00  4.59356004e+00  9.40461399e+00
  1.22744414e+01  1.23092610e+01  2.86969735e+01  4.96751469e+01
  4.97013068e+01  9.06562064e+01  2.95059207e+02]
alpha-B2u nocc = 1  HOMO = -0.146405192276839  LUMO = 0.152004083758847
   mo_energy = [-1.46405192e-01  1.52004084e-01  3.90386880e-01  7.33445877e-01
  7.42613694e-01  1.07694071e+00  1.89659417e+00  1.92348530e+00
  3.13366721e+00  4.57389387e+00  4.62712945e+00  9.47239487e+00
  1.22831108e+01  1.23533845e+01  2.87519508e+01  4.96816804e+01
  4.97341050e+01  9.06895284e+01  2.95074491e+02]
alpha-B3u nocc = 1  HOMO = -0.146405192276849  LUMO = 0.152004083758869
   mo_energy = [-1.46405192e-01  1.52004084e-01  3.90386880e-01  7.33445877e-01
  7.42613694e-01  1.07694071e+00  1.89659417e+00  1.92348530e+00
  3.13366721e+00  4.57389387e+00  4.62712945e+00  9.47239487e+00
  1.22831108e+01  1.23533845e+01  2.87519508e+01  4.96816804e+01
  4.97341050e+01  9.06895284e+01  2.95074491e+02]
beta-Ag nocc = 2  HOMO = -0.729789774867761  LUMO = 0.189593552109774
   mo_energy = [-2.01842286e+01 -7.29789775e-01  1.89593552e-01  3.42778186e-01
  3.45316753e-01  4.67683845e-01  8.62924906e-01  8.64836888e-01
  1.33591856e+00  1.71639765e+00  1.72044986e+00  1.73266230e+00
  1.99512326e+00  2.01276724e+00  4.22273064e+00  4.52987201e+00
  4.53761699e+00  4.56083286e+00  4.82232735e+00  4.83537260e+00
  1.13163987e+01  1.13273149e+01  1.13601835e+01  1.30041387e+01
  1.30161622e+01  1.48665795e+01  3.97636810e+01  3.97887691e+01
  5.05730805e+01  1.40672711e+02  1.40691174e+02  1.64481266e+02
  6.72232530e+02]
beta-B1g nocc = 0
   mo_energy = [  0.34531675   0.86292491   1.72044986   1.7326623    1.99512326
   4.53761699   4.56083286   4.82232735  11.32731494  11.3601835
  13.01616217  39.78876909 140.69117427]
beta-B2g nocc = 0
   mo_energy = [  0.34339428   0.86416529   1.71740957   1.72553001   2.00780644
   4.531807     4.54730435   4.83174062  11.3191257   11.34098952
  13.00709477  39.76993302 140.67732084]
beta-B3g nocc = 0
   mo_energy = [  0.34339428   0.86416529   1.71740957   1.72553001   2.00780644
   4.531807     4.54730435   4.83174062  11.3191257   11.34098952
  13.00709477  39.76993302 140.67732084]
beta-Au nocc = 0
   mo_energy = [ 0.7361112   1.91240705  4.62104144 12.35284681 49.72695668]
beta-B1u nocc = 0
   mo_energy = [1.49819696e-01 3.41485757e-01 5.41370784e-01 7.32807078e-01
 7.36111198e-01 1.16880610e+00 1.90585881e+00 1.91240705e+00
 3.19989512e+00 4.61171643e+00 4.62104144e+00 9.49828410e+00
 1.23395816e+01 1.23528468e+01 2.87467003e+01 4.97124994e+01
 4.97269567e+01 9.06756216e+01 2.95064981e+02]
beta-B2u nocc = 1  HOMO = -0.079899618347655  LUMO = 0.152379946900871
   mo_energy = [-7.98996183e-02  1.52379947e-01  3.96229007e-01  7.33628238e-01
  7.40258779e-01  1.09651760e+00  1.90749165e+00  1.92055705e+00
  3.16251055e+00  4.61404952e+00  4.63264254e+00  9.49868258e+00
  1.23428944e+01  1.23694829e+01  2.87683370e+01  4.97161108e+01
  4.97450717e+01  9.06967068e+01  2.95076958e+02]
beta-B3u nocc = 1  HOMO = -0.0798996183476477  LUMO = 0.152379946900875
   mo_energy = [-7.98996183e-02  1.52379947e-01  3.96229007e-01  7.33628238e-01
  7.40258779e-01  1.09651760e+00  1.90749165e+00  1.92055705e+00
  3.16251055e+00  4.61404952e+00  4.63264254e+00  9.49868258e+00
  1.23428944e+01  1.23694829e+01  2.87683370e+01  4.97161108e+01
  4.97450717e+01  9.06967068e+01  2.95076958e+02]
multiplicity <S^2> = 0.77311404  2S+1 = 2.022982
E1 = -106.85166619328706  Ecoul = 32.054987220312384
cycle= 146 E= -74.7966789729747  delta_E= -7.11e-14  |g|= 2.94e-12  |ddm|= 2.62e-12
    CPU time for cycle= 146      0.39 sec, wall time      0.10 sec
diis-norm(errvec)=4.17187e-12
Linear dependence found in DIIS error vectors.
diis-c [-2.89052492e-16  1.25000000e-01  1.25000000e-01  1.25000000e-01
  1.25000000e-01  1.25000000e-01  1.25000000e-01  1.25000000e-01
  1.25000000e-01]
alpha HOMO (B2u) = -0.146405192276605  LUMO (B1u) = 0.15029525851542
alpha irrep_nelec = [2, 0, 0, 0, 0, 1, 1, 1]
beta  irrep_nelec = [2, 0, 0, 0, 0, 0, 1, 1]
alpha-Ag nocc = 2  HOMO = -0.910629055307951  LUMO = 0.190390806044524
   mo_energy = [-2.02252866e+01 -9.10629055e-01  1.90390806e-01  3.42673308e-01
  3.47357960e-01  4.62710005e-01  8.49652624e-01  8.68304589e-01
  1.30704672e+00  1.71395556e+00  1.71920347e+00  1.73523219e+00
  1.93992829e+00  1.98809809e+00  4.17591428e+00  4.51288910e+00
  4.52483164e+00  4.56133642e+00  4.72661974e+00  4.79738794e+00
  1.12773687e+01  1.12961100e+01  1.13530169e+01  1.29208997e+01
  1.29926011e+01  1.48288611e+01  3.97228128e+01  3.97760893e+01
  5.05552080e+01  1.40660094e+02  1.40686919e+02  1.64474937e+02
  6.72230607e+02]
alpha-B1g nocc = 0
   mo_energy = [  0.34735796   0.86830459   1.71920347   1.73523219   1.98809809
   4.52483164   4.56133642   4.79738794  11.29611003  11.3530169
  12.99260111  39.77608935 140.68691865]
alpha-B2g nocc = 0
   mo_energy = [  0.34383316   0.85408744   1.71526359   1.72582685   1.95136169
   4.51586463   4.53991438   4.74368388  11.28204377  11.31969384
  12.93873538  39.73610195 140.66679384]
alpha-B3g nocc = 0
   mo_energy = [  0.34383316   0.85408744   1.71526359   1.72582685   1.95136169
   4.51586463   4.53991438   4.74368388  11.28204377  11.31969384
  12.93873538  39.73610195 140.66679384]
alpha-Au nocc = 0
   mo_energy = [ 0.73684369  1.9065096   4.59356004 12.309261   49.70130684]
alpha-B1u nocc = 1  HOMO = -0.23914811987746  LUMO = 0.15029525851542
   mo_energy = [-2.39148120e-01  1.50295259e-01  3.78043566e-01  7.32318110e-01
  7.36843694e-01  1.03770526e+00  1.89332360e+00  1.90650960e+00
  3.07072597e+00  4.56740133e+00  4.59356004e+00  9.40461399e+00
  1.22744414e+01  1.23092610e+01  2.86969735e+01  4.96751469e+01
  4.97013068e+01  9.06562064e+01  2.95059207e+02]
alpha-B2u nocc = 1  HOMO = -0.146405192276605  LUMO = 0.152004083758852
   mo_energy = [-1.46405192e-01  1.52004084e-01  3.90386880e-01  7.33445877e-01
  7.42613694e-01  1.07694071e+00  1.89659417e+00  1.92348530e+00
  3.13366721e+00  4.57389387e+00  4.62712945e+00  9.47239487e+00
  1.22831108e+01  1.23533845e+01  2.87519508e+01  4.96816804e+01
  4.97341050e+01  9.06895284e+01  2.95074491e+02]
alpha-B3u nocc = 1  HOMO = -0.146405192276611  LUMO = 0.152004083758856
   mo_energy = [-1.46405192e-01  1.52004084e-01  3.90386880e-01  7.33445877e-01
  7.42613694e-01  1.07694071e+00  1.89659417e+00  1.92348530e+00
  3.13366721e+00  4.57389387e+00  4.62712945e+00  9.47239487e+00
  1.22831108e+01  1.23533845e+01  2.87519508e+01  4.96816804e+01
  4.97341050e+01  9.06895284e+01  2.95074491e+02]
beta-Ag nocc = 2  HOMO = -0.729789774867631  LUMO = 0.189593552109789
   mo_energy = [-2.01842286e+01 -7.29789775e-01  1.89593552e-01  3.42778186e-01
  3.45316753e-01  4.67683845e-01  8.62924906e-01  8.64836888e-01
  1.33591856e+00  1.71639765e+00  1.72044986e+00  1.73266230e+00
  1.99512326e+00  2.01276724e+00  4.22273064e+00  4.52987201e+00
  4.53761699e+00  4.56083286e+00  4.82232735e+00  4.83537260e+00
  1.13163987e+01  1.13273149e+01  1.13601835e+01  1.30041387e+01
  1.30161622e+01  1.48665795e+01  3.97636810e+01  3.97887691e+01
  5.05730805e+01  1.40672711e+02  1.40691174e+02  1.64481266e+02
  6.72232530e+02]
beta-B1g nocc = 0
   mo_energy = [  0.34531675   0.86292491   1.72044986   1.7326623    1.99512326
   4.53761699   4.56083286   4.82232735  11.32731494  11.3601835
  13.01616217  39.78876909 140.69117427]
beta-B2g nocc = 0
   mo_energy = [  0.34339428   0.86416529   1.71740957   1.72553001   2.00780644
   4.531807     4.54730435   4.83174062  11.3191257   11.34098952
  13.00709477  39.76993302 140.67732084]
beta-B3g nocc = 0
   mo_energy = [  0.34339428   0.86416529   1.71740957   1.72553001   2.00780644
   4.531807     4.54730435   4.83174062  11.3191257   11.34098952
  13.00709477  39.76993302 140.67732084]
beta-Au nocc = 0
   mo_energy = [ 0.7361112   1.91240705  4.62104144 12.35284681 49.72695668]
beta-B1u nocc = 0
   mo_energy = [1.49819696e-01 3.41485757e-01 5.41370784e-01 7.32807078e-01
 7.36111198e-01 1.16880610e+00 1.90585881e+00 1.91240705e+00
 3.19989512e+00 4.61171643e+00 4.62104144e+00 9.49828410e+00
 1.23395816e+01 1.23528468e+01 2.87467003e+01 4.97124994e+01
 4.97269567e+01 9.06756216e+01 2.95064981e+02]
beta-B2u nocc = 1  HOMO = -0.0798996183478016  LUMO = 0.152379946900862
   mo_energy = [-7.98996183e-02  1.52379947e-01  3.96229007e-01  7.33628238e-01
  7.40258779e-01  1.09651760e+00  1.90749165e+00  1.92055705e+00
  3.16251055e+00  4.61404952e+00  4.63264254e+00  9.49868258e+00
  1.23428944e+01  1.23694829e+01  2.87683370e+01  4.97161108e+01
  4.97450717e+01  9.06967068e+01  2.95076958e+02]
beta-B3u nocc = 1  HOMO = -0.0798996183478105  LUMO = 0.152379946900867
   mo_energy = [-7.98996183e-02  1.52379947e-01  3.96229007e-01  7.33628238e-01
  7.40258779e-01  1.09651760e+00  1.90749165e+00  1.92055705e+00
  3.16251055e+00  4.61404952e+00  4.63264254e+00  9.49868258e+00
  1.23428944e+01  1.23694829e+01  2.87683370e+01  4.97161108e+01
  4.97450717e+01  9.06967068e+01  2.95076958e+02]
multiplicity <S^2> = 0.77311404  2S+1 = 2.022982
E1 = -106.8516661932876  Ecoul = 32.05498722031287
cycle= 147 E= -74.7966789729747  delta_E= -5.68e-14  |g|= 2.71e-12  |ddm|= 9.24e-13
    CPU time for cycle= 147      0.39 sec, wall time      0.10 sec
alpha HOMO (B2u) = -0.146405192275597  LUMO (B1u) = 0.150295258515438
alpha irrep_nelec = [2, 0, 0, 0, 0, 1, 1, 1]
beta  irrep_nelec = [2, 0, 0, 0, 0, 0, 1, 1]
alpha-Ag nocc = 2  HOMO = -0.910629055307228  LUMO = 0.19039080604449
   mo_energy = [-2.02252866e+01 -9.10629055e-01  1.90390806e-01  3.42673308e-01
  3.47357960e-01  4.62710005e-01  8.49652624e-01  8.68304589e-01
  1.30704672e+00  1.71395556e+00  1.71920347e+00  1.73523219e+00
  1.93992829e+00  1.98809809e+00  4.17591428e+00  4.51288910e+00
  4.52483164e+00  4.56133642e+00  4.72661974e+00  4.79738794e+00
  1.12773687e+01  1.12961100e+01  1.13530169e+01  1.29208997e+01
  1.29926011e+01  1.48288611e+01  3.97228128e+01  3.97760893e+01
  5.05552080e+01  1.40660094e+02  1.40686919e+02  1.64474937e+02
  6.72230607e+02]
alpha-B1g nocc = 0
   mo_energy = [  0.34735796   0.86830459   1.71920347   1.73523219   1.98809809
   4.52483164   4.56133642   4.79738794  11.29611003  11.3530169
  12.99260111  39.77608935 140.68691865]
alpha-B2g nocc = 0
   mo_energy = [  0.34383316   0.85408744   1.71526359   1.72582685   1.95136169
   4.51586463   4.53991438   4.74368388  11.28204377  11.31969384
  12.93873538  39.73610195 140.66679384]
alpha-B3g nocc = 0
   mo_energy = [  0.34383316   0.85408744   1.71526359   1.72582685   1.95136169
   4.51586463   4.53991438   4.74368388  11.28204377  11.31969384
  12.93873538  39.73610195 140.66679384]
alpha-Au nocc = 0
   mo_energy = [ 0.73684369  1.9065096   4.59356004 12.309261   49.70130684]
alpha-B1u nocc = 1  HOMO = -0.239148119876894  LUMO = 0.150295258515438
   mo_energy = [-2.39148120e-01  1.50295259e-01  3.78043566e-01  7.32318110e-01
  7.36843694e-01  1.03770526e+00  1.89332360e+00  1.90650960e+00
  3.07072597e+00  4.56740133e+00  4.59356004e+00  9.40461399e+00
  1.22744414e+01  1.23092610e+01  2.86969735e+01  4.96751469e+01
  4.97013068e+01  9.06562064e+01  2.95059207e+02]
alpha-B2u nocc = 1  HOMO = -0.146405192275597  LUMO = 0.152004083758853
   mo_energy = [-1.46405192e-01  1.52004084e-01  3.90386880e-01  7.33445877e-01
  7.42613694e-01  1.07694071e+00  1.89659417e+00  1.92348530e+00
  3.13366721e+00  4.57389387e+00  4.62712945e+00  9.47239487e+00
  1.22831108e+01  1.23533845e+01  2.87519508e+01  4.96816804e+01
  4.97341050e+01  9.06895284e+01  2.95074491e+02]
alpha-B3u nocc = 1  HOMO = -0.146405192275603  LUMO = 0.152004083758855
   mo_energy = [-1.46405192e-01  1.52004084e-01  3.90386880e-01  7.33445877e-01
  7.42613694e-01  1.07694071e+00  1.89659417e+00  1.92348530e+00
  3.13366721e+00  4.57389387e+00  4.62712945e+00  9.47239487e+00
  1.22831108e+01  1.23533845e+01  2.87519508e+01  4.96816804e+01
  4.97341050e+01  9.06895284e+01  2.95074491e+02]
beta-Ag nocc = 2  HOMO = -0.729789774868037  LUMO = 0.189593552109837
   mo_energy = [-2.01842286e+01 -7.29789775e-01  1.89593552e-01  3.42778186e-01
  3.45316753e-01  4.67683845e-01  8.62924906e-01  8.64836888e-01
  1.33591856e+00  1.71639765e+00  1.72044986e+00  1.73266230e+00
  1.99512326e+00  2.01276724e+00  4.22273064e+00  4.52987201e+00
  4.53761699e+00  4.56083286e+00  4.82232735e+00  4.83537260e+00
  1.13163987e+01  1.13273149e+01  1.13601835e+01  1.30041387e+01
  1.30161622e+01  1.48665795e+01  3.97636810e+01  3.97887691e+01
  5.05730805e+01  1.40672711e+02  1.40691174e+02  1.64481266e+02
  6.72232530e+02]
beta-B1g nocc = 0
   mo_energy = [  0.34531675   0.86292491   1.72044986   1.7326623    1.99512326
   4.53761699   4.56083286   4.82232735  11.32731494  11.3601835
  13.01616217  39.78876909 140.69117427]
beta-B2g nocc = 0
   mo_energy = [  0.34339428   0.86416529   1.71740957   1.72553001   2.00780644
   4.531807     4.54730435   4.83174062  11.3191257   11.34098952
  13.00709477  39.76993302 140.67732084]
beta-B3g nocc = 0
   mo_energy = [  0.34339428   0.86416529   1.71740957   1.72553001   2.00780644
   4.531807     4.54730435   4.83174062  11.3191257   11.34098952
  13.00709477  39.76993302 140.67732084]
beta-Au nocc = 0
   mo_energy = [ 0.7361112   1.91240705  4.62104144 12.35284681 49.72695668]
beta-B1u nocc = 0
   mo_energy = [1.49819696e-01 3.41485757e-01 5.41370784e-01 7.32807078e-01
 7.36111198e-01 1.16880610e+00 1.90585881e+00 1.91240705e+00
 3.19989512e+00 4.61171643e+00 4.62104144e+00 9.49828410e+00
 1.23395816e+01 1.23528468e+01 2.87467003e+01 4.97124994e+01
 4.97269567e+01 9.06756216e+01 2.95064981e+02]
beta-B2u nocc = 1  HOMO = -0.079899618348443  LUMO = 0.152379946900858
   mo_energy = [-7.98996183e-02  1.52379947e-01  3.96229007e-01  7.33628238e-01
  7.40258779e-01  1.09651760e+00  1.90749165e+00  1.92055705e+00
  3.16251055e+00  4.61404952e+00  4.63264254e+00  9.49868258e+00
  1.23428944e+01  1.23694829e+01  2.87683370e+01  4.97161108e+01
  4.97450717e+01  9.06967068e+01  2.95076958e+02]
beta-B3u nocc = 1  HOMO = -0.0798996183484473  LUMO = 0.152379946900852
   mo_energy = [-7.98996183e-02  1.52379947e-01  3.96229007e-01  7.33628238e-01
  7.40258779e-01  1.09651760e+00  1.90749165e+00  1.92055705e+00
  3.16251055e+00  4.61404952e+00  4.63264254e+00  9.49868258e+00
  1.23428944e+01  1.23694829e+01  2.87683370e+01  4.97161108e+01
  4.97450717e+01  9.06967068e+01  2.95076958e+02]
multiplicity <S^2> = 0.77311404  2S+1 = 2.022982
E1 = -106.85166619328959  Ecoul = 32.05498722031483
Extra cycle  E= -74.7966789729748  delta_E= -2.84e-14  |g|= 2.21e-12  |ddm|= 9.24e-13
    CPU time for scf_cycle    467.25 sec, wall time    153.61 sec
    CPU time for SCF    467.38 sec, wall time    153.69 sec
converged SCF energy = -74.7966789729748  <S^2> = 0.77311404  2S+1 = 2.022982
irreps of each MO ['Ag' 'Ag' 'B1u' 'B2u' 'B3u' 'B1u' 'B2u' 'B3u' 'Ag' 'Ag' 'B2g' 'B3g' 'Ag'
 'B1g' 'B1u' 'B2u' 'B3u' 'Ag' 'B1u' 'B2u' 'B3u' 'Au' 'B1u' 'B2u' 'B3u'
 'Ag' 'B2g' 'B3g' 'Ag' 'B1g' 'B1u' 'B2u' 'B3u' 'Ag' 'Ag' 'B2g' 'B3g' 'Ag'
 'B1g' 'B2g' 'B3g' 'Ag' 'B1g' 'B1u' 'B2u' 'B3u' 'Au' 'B1u' 'B2u' 'B3u'
 'Ag' 'B2g' 'B3g' 'Ag' 'B1g' 'B1u' 'B2u' 'B3u' 'Ag' 'Ag' 'B2g' 'B3g' 'Ag'
 'B1g' 'B2g' 'B3g' 'Ag' 'B1g' 'B1u' 'B2u' 'B3u' 'Au' 'B1u' 'B2u' 'B3u'
 'Ag' 'B2g' 'B3g' 'Ag' 'B1g' 'B1u' 'B2u' 'B3u' 'Ag' 'B2g' 'B3g' 'Ag' 'B1g'
 'B2g' 'B3g' 'Ag' 'B1g' 'B1u' 'B2u' 'B3u' 'Au' 'B1u' 'B2u' 'B3u' 'Ag'
 'B2g' 'B3g' 'Ag' 'B1g' 'Ag' 'B1u' 'B2u' 'B3u' 'Ag' 'B2g' 'B3g' 'Ag' 'B1g'
 'B1u' 'B2u' 'B3u' 'Au' 'B1u' 'B2u' 'B3u' 'Ag' 'B1u' 'B2u' 'B3u' 'Ag'
 'B2g' 'B3g' 'Ag' 'B1g' 'Ag' 'B1u' 'B2u' 'B3u' 'Ag']
irreps of each MO ['Ag' 'Ag' 'B2u' 'B3u' 'B1u' 'B2u' 'B3u' 'Ag' 'B1u' 'Ag' 'B2g' 'B3g' 'Ag'
 'B1g' 'B2u' 'B3u' 'Ag' 'B1u' 'B1u' 'B2u' 'B3u' 'Au' 'B1u' 'B2u' 'B3u'
 'Ag' 'B1g' 'B2g' 'B3g' 'Ag' 'B2u' 'B3u' 'B1u' 'Ag' 'Ag' 'B2g' 'B3g' 'Ag'
 'B1g' 'B2g' 'B3g' 'Ag' 'B1g' 'B1u' 'B2u' 'B3u' 'Au' 'B1u' 'B2u' 'B3u'
 'Ag' 'B1g' 'B2g' 'B3g' 'Ag' 'B2u' 'B3u' 'B1u' 'Ag' 'Ag' 'B2g' 'B3g' 'Ag'
 'B1g' 'B2g' 'B3g' 'Ag' 'B1g' 'B1u' 'B2u' 'B3u' 'Au' 'B1u' 'B2u' 'B3u'
 'Ag' 'B1g' 'B2g' 'B3g' 'Ag' 'B1u' 'B2u' 'B3u' 'Ag' 'B2g' 'B3g' 'Ag' 'B1g'
 'B2g' 'B3g' 'Ag' 'B1g' 'B1u' 'B2u' 'B3u' 'Au' 'B1u' 'B2u' 'B3u' 'Ag'
 'B2g' 'B3g' 'Ag' 'B1g' 'Ag' 'B1u' 'B2u' 'B3u' 'Ag' 'B2g' 'B3g' 'Ag' 'B1g'
 'B1u' 'B2u' 'B3u' 'Au' 'B1u' 'B2u' 'B3u' 'Ag' 'B1u' 'B2u' 'B3u' 'Ag'
 'B2g' 'B3g' 'Ag' 'B1g' 'Ag' 'B1u' 'B2u' 'B3u' 'Ag']
irreps of each MO ['Ag' 'Ag' 'B3u' 'B2u' 'B1u' 'B1u' 'B2u' 'B3u' 'Ag' 'Ag' 'B2g' 'B3g' 'B1g'
 'Ag' 'B1u' 'B3u' 'B2u' 'Ag' 'B1u' 'B3u' 'B2u' 'Au' 'B1u' 'B2u' 'B3u' 'Ag'
 'B3g' 'B2g' 'B1g' 'Ag' 'B1u' 'B3u' 'B2u' 'Ag' 'Ag' 'B3g' 'B2g' 'B1g' 'Ag'
 'B3g' 'B2g' 'B1g' 'Ag' 'B1u' 'B3u' 'B2u' 'B1u' 'Au' 'B3u' 'B2u' 'Ag'
 'B3g' 'B2g' 'B1g' 'Ag' 'B1u' 'B3u' 'B2u' 'Ag' 'Ag' 'B3g' 'B2g' 'B1g' 'Ag'
 'B3g' 'B2g' 'Ag' 'B1g' 'B1u' 'B3u' 'B2u' 'B1u' 'Au' 'B2u' 'B3u' 'Ag'
 'B3g' 'B2g' 'Ag' 'B1g' 'B1u' 'B3u' 'B2u' 'Ag' 'B3g' 'B2g' 'Ag' 'B1g'
 'B3g' 'B2g' 'Ag' 'B1g' 'B1u' 'B3u' 'B2u' 'Au' 'B1u' 'B2u' 'B3u' 'Ag'
 'B3g' 'B2g' 'B1g' 'Ag' 'Ag' 'B1u' 'B3u' 'B2u' 'Ag' 'B2g' 'B3g' 'Ag' 'B1g'
 'B1u' 'B2u' 'B3u' 'B1u' 'Au' 'B2u' 'B3u' 'Ag' 'B1u' 'B3u' 'B2u' 'Ag'
 'B2g' 'B3g' 'Ag' 'B1g' 'Ag' 'B1u' 'B3u' 'B2u' 'Ag']
