[Molden Format]
[ATOMS] AU
 Be    1    4        0.0000000000        0.0000000000        0.0000000000
[GTO]
   1   0
 s    7 1.00
  0.3016787100D+02  0.1543289000D+00
  0.5495115300D+01  0.5353281000D+00
  0.1487192700D+01  0.4446345000D+00
  0.1314833100D+01  0.0000000000D+00
  0.3055389000D+00  0.0000000000D+00
  0.9937070000D-01  0.0000000000D+00
  0.7735000000D-01  0.0000000000D+00
 s    7 1.00
  0.3016787100D+02  0.0000000000D+00
  0.5495115300D+01  0.0000000000D+00
  0.1487192700D+01  0.0000000000D+00
  0.1314833100D+01 -0.9996720000D-01
  0.3055389000D+00  0.3995128000D+00
  0.9937070000D-01  0.7001154000D+00
  0.7735000000D-01  0.0000000000D+00
 s    7 1.00
  0.3016787100D+02  0.0000000000D+00
  0.5495115300D+01  0.0000000000D+00
  0.1487192700D+01  0.0000000000D+00
  0.1314833100D+01  0.0000000000D+00
  0.3055389000D+00  0.0000000000D+00
  0.9937070000D-01  0.0000000000D+00
  0.7735000000D-01  0.1000000000D+01
 p    3 1.00
  0.1314833100D+01  0.1559162000D+00
  0.3055389000D+00  0.6076837000D+00
  0.9937070000D-01  0.3919573000D+00
 
[5D]
[7F]
[9G]
[MO]
 Ene=       -5.0710
 Spin= Alpha
 Occup=        1.0000
   1     -0.9910490953
   2     -0.0668882005
   3      0.0454925880
   4      0.0000000000
   5      0.0000000000
   6      0.0000000000
 Ene=       -0.6586
 Spin= Alpha
 Occup=        1.0000
   1     -0.2858999620
   2      0.9580289106
   3      0.0798023231
   4      0.0000000000
   5      0.0000000000
   6      0.0000000000
 Ene=       -0.1923
 Spin= Alpha
 Occup=        0.0000
   1      0.0000000000
   2      0.0000000000
   3      0.0000000000
   4      0.0000000000
   5      0.0000000000
   6      1.0000000000
 Ene=       -0.1923
 Spin= Alpha
 Occup=        0.0000
   1      0.0000000000
   2      0.0000000000
   3      0.0000000000
   4      0.0000000000
   5      1.0000000000
   6      0.0000000000
 Ene=       -0.1923
 Spin= Alpha
 Occup=        0.0000
   1      0.0000000000
   2      0.0000000000
   3      0.0000000000
   4      1.0000000000
   5      0.0000000000
   6      0.0000000000
 Ene=        0.0938
 Spin= Alpha
 Occup=        0.0000
   1      0.2055973492
   2     -3.1110629669
   3      3.2029689620
   4      0.0000000000
   5      0.0000000000
   6      0.0000000000
 Ene=       -5.0278
 Spin= Beta
 Occup=        1.0000
   1     -0.9897672385
   2     -0.0765278043
   3      0.0523599377
   4      0.0000000000
   5      0.0000000000
   6      0.0000000000
 Ene=       -0.2788
 Spin= Beta
 Occup=        0.0000
   1     -0.2434673865
   2      0.3426521322
   3      0.6934597779
   4      0.0000000000
   5      0.0000000000
   6      0.0000000000
 Ene=       -0.1066
 Spin= Beta
 Occup=        0.0000
   1      0.0000000000
   2      0.0000000000
   3      0.0000000000
   4      0.0000000000
   5      0.0000000000
   6      1.0000000000
 Ene=       -0.1066
 Spin= Beta
 Occup=        0.0000
   1      0.0000000000
   2      0.0000000000
   3      0.0000000000
   4      0.0000000000
   5      1.0000000000
   6      0.0000000000
 Ene=       -0.1066
 Spin= Beta
 Occup=        0.0000
   1      0.0000000000
   2      0.0000000000
   3      0.0000000000
   4      1.0000000000
   5      0.0000000000
   6      0.0000000000
 Ene=        0.1573
 Spin= Beta
 Occup=        0.0000
   1     -0.2593681034
   2      3.2369336138
   3     -3.1279098662
   4      0.0000000000
   5      0.0000000000
   6      0.0000000000
