 **********************************************************************
                          MRCC program system
 **********************************************************************
 
                              Written by
     Mihaly Kallay, Peter R. Nagy, David Mester, Laszlo Gyevi-Nagy,
        Jozsef Csoka, P. Bernat Szabo, Zoltan Rolik, Gyula Samu,
      Bence Hegely, Bence Ladoczki, Klara Petrov, Jozsef Csontos,
     Adam Ganyecz, Istvan Ladjanszki, Lorant Szegedy, Mate Farkas,
          Pal D. Mezei, Reka A. Horvath, and Balazs D. Lorincz
 
        Department of Physical Chemistry and Materials Science
            Budapest University of Technology and Economics
                  Budapest P.O.Box 91, H-1521 Hungary
 
                              www.mrcc.hu
 
                            Version: 25.1.0

 ************************ 2025-10-08 20:08:15 *************************
 Executing minp...

 Reading input from MINP...
 
 Input file:
 
basis=STO-3G-EMSL
#iface=cfour
uncontract=off
calc=CCSD
ccprog=mrcc
#mem=8GB
core=frozen
itol=18
scftol=13
cctol=10
ccmaxit=999
scfmaxit=9999
scfiguess=ao
scftype=RHF
#rohftype=standard
rest=2
charge=+0
mult=1
#refdet=serialno
symm=1
occ=2,0,0,0,0,0,0,0
geom
BE

#Li 1 R
#R=3.065

#unit=angstroms

tprint=0.01
verbosity=3
#nstate=4
 
 
 Checking keyword combinations...
 
 Keywords:
 
 active=none
 agrid=ld0006-ld0590
 agrid_pssp=ld0006-ld0194
 agrid_pssp_sm=ld0006-ld0074
 basis=sto-3g-emsl
 basis_sm=none
 basopt=off
 bfbasis=none
 bfgsmem=10
 bfgstol=1.0d-3
 boysalg=jacobi
 bpcompo=0.985
 bpcompv=0.98
 bpdfo=0.985
 bpocc=0.985
 bppdo=0.985
 bppdv=0.98
 bpedo=0.985
 bpedv=0.98
 bp_subsyso=0.95
 bp_subsysv=0.95
 cabscorr=off
 cabsdual=off
 calc=ccsd
 ccmaxit=999
 ccprog=mrcc
 ccsdalg=disk
 ccsdmkl=seq
 ccsdrest=off
 ccsdthreads=2
 cctol=10
 charge=+0
 cialg=disk
 ciguess=off
 cmpgrp=auto
 comprest=off
 coord_sys=ric
 core=frozen
 corembed=off
 csapprox=off
 cvs=off
 dboc=off
 deltaf12=off
 delocsomofact=
 dendec=cholesky
 dens=0
 denscorr=0
 dfalg=lineq
 dfbasis_cab=none
 dfbasis_cor=none
 dfbasis_scf=none
 dfbasis_scf_sm=auto
 dfintran=ovirt
 dft=off
 dhexc=adc(2)
 diag=david
 docc=
 domrad=10.d0
 drpaalg=fit
 dual=off
 dual_df=off
 dyson=off
 ecp=auto
 edisp=off
 edisp_embed=off
 embed=off
 epairestfact=off
 epairscale=1.d0
 etemp=300
 epert=none
 eps=
 espcharge=off
 excrad=0.d0
 excrad_f12=0.d0
 excrad_fin=0.000000000D+00
 fastdbbsc=v2
 fitting=coulomb
 fmm=off
 fmmord=8
 fnonorb=
 freq=off
 gamma=1.d0
 gauss=spher
 geom=zmat
 gopt=off
 ghost=none
 gtol=7
 grdens=off
 grid=auto
 grid_sm=auto
 gridbatch_cos=2000
 grtol=10
 guido_ct=off
 hamilton=dc
 iface=none
 incore=off
 intalg=auto
 ip_ea=off
 itol=18
 laptol=1.d-2
 lccoporder=trffirst
 lcorthr=normal
 lccrest=off
 ldfgrad_tol=8
 lmp2dens=on
 lnoepso=0.d0
 lnoepsv=1e-6
 localcc=off
 localcorrsymm=off
 locintrf=disk
 mact=
 maxact=off
 maxdim=200
 maxex=0
 maxmicroit=100
 mcscfiguess=hf
 mem=256MB
 mmprog=
 molden=on
 mp2ongrid=off
 mpitasks=1
 mulmet=0
 mult=1
 nab=off
 nacto=0
 nactv=0
 naf_amp=3.16d-3
 naf_cor=off
 naf_f12=off
 naf_scf=off
 nafalg=albe
 nafdens=off
 naftyp=
 nchol=auto
 ndeps=1e-3
 nstate=1
 nsing=0
 nto=off
 ntrip=0
 num_grad=off
 occ=2,0,0,0,0,0,0,0
 occri=off
 oniom=off
 oniom_eechg=off
 oniom_pcm=off
 oniom_qcorr=off
 optalg=
 optmaxit=50
 optetol=1e-6
 optex=0
 optgtol=1e-4
 optstol=1e-3
 orblocc=off
 orbloce=off
 orbloco=off
 orblocv=off
 orblocguess=cholesky
 osveps=1e-3
 ovirt=off
 ovltol=1e-7
 ovosnorb=80.0
 pao_subsys_tol=1e-3
 pao_tol=1e-3
 pcm=off
 popul=off
 pressure=100000
 pssp=off
 ptfreq=0.0
 ptthreads=2
 qmreg=
 qmmm=off
 qro=off
 qscf=off
 redcost_exc=off
 redcost_tddft=off
 refdet=none
 rest=2
 rgrid=log3
 rism=off
 rohfcore=semicanonical
 rohftype=standard
 scfalg=auto
 scf_conv=auto
 scfdamp=0.0d0
 scfdamp_mode=off
 scfdamp_end=9999
 scfdamp_dampstep=0.d0
 scfdamp_dtol=0.0d0
 scfdamp_maxfact=0.0d0
 scfdamp_minfact=0.0d0
 scfdiis=on
 scfdiis_dtol=0.0d0
 scfdiis_end=9999
 scfdiis_start=2
 scfdiis_step=1
 scfdiis_watch=off
 scfdiis_wrange=10
 scfdiis_wlimit=5
 scfdiis_delmax=2
 scfdtol=14
 scfext=10
 scfguessdens=
 scfiguess=ao
 scfloc=off
 scflshift=0.20
 scflshift_end=8
 scflshift_dtol=0.0
 scflshift_gaptol=0.20
 scfmaxit=9999
 scftype=rhf
 scftol=13
 scspe=1.d0
 scsph=1.d0
 scsps=1.2d0
 scsps_t=1.2d0
 scspt=0.33333333333333
 scspt_t=0.33333333333333
 scspv=1.d0
 spairtol=1e-4
 sqmprog=
 subminp=top
 subsys_bopu=on
 symm=1
 talg=occ
 temp=298.15
 test=off
 theodore=off
 tlmo=0.999
 tpao=0.94
 tprint=0.01
 uncontract=off
 unit=angs
 usedisk=2
 verbosity=3
 wpairtol=0.100000000E-05
 ispstart=
 ispend=

 ************************ 2025-10-08 20:08:16 *************************
 Executing integ...

 Allocation of 256.0 Mbytes of memory...
 
 Number of atoms:                  1
 Charge:                           0
 Number of electrons:              4
 Number of core electrons:         2
 Spin multiplicity:                1
 
                 Cartesian coordinates [bohr]      Atomic mass [AMU]  Z
   1  Be    0.00000000    0.00000000    0.00000000     9.012182       4
 
 This molecule is a spherical top.
 
 Rotational constants [cm-1]: 

 
 Point group: Oh  
 Computational point group: D2h 
 
 Cartesian coordinates in standard orientation [bohr]
   1  Be    0.00000000    0.00000000    0.00000000
 
 Nuclear repulsion energy [au]:          0.000000000000
 
 
 Basis set information:
 
 Maximum angular momentum: p
 Maximum number of contracted Gaussians:    2
 Maximum number of primitive Gaussians:     6
 Spherical harmonic GTOs are used.
 
   1  Be sto-3g-emsl [ 6s 3p | 2s 1p ]
 
 Basis functions:
            1             2             3             4             5             6             7             8             9            10
    0    1Be1s         1Be2s         1Be1pz        1Be1py        1Be1px    
 
 Maximum number of basis functions per shell:    3
 Total number of basis functions:      5
 
 
 Character table for point group D2h:
 
          E  C2z C2y C2x  i  Qxy Qxz Qyz 
    Ag    1   1   1   1   1   1   1   1
    B1g   1   1  -1  -1   1   1  -1  -1
    B2g   1  -1   1  -1   1  -1   1  -1
    B3g   1  -1  -1   1   1  -1  -1   1
    Au    1   1   1   1  -1  -1  -1  -1
    B1u   1   1  -1  -1  -1  -1   1   1
    B2u   1  -1   1  -1  -1   1  -1   1
    B3u   1  -1  -1   1  -1   1   1  -1
 
 Number of basis functions per irrep:
    Ag      2
    B1g     0
    B2g     0
    B3g     0
    Au      0
    B1u     1
    B2u     1
    B3u     1
 
 
 Calculation of overlap integrals...
 CPU time [min]:     0.081                   Wall time [min]:     0.006
 
 Calculation of the square root of the overlap matrix...
 Minimum eigenvalue of the overlap matrix: 0.740483E+00
 CPU time [min]:     0.093                   Wall time [min]:     0.007
 
 Calculation of kinetic energy integrals...
 CPU time [min]:     0.094                   Wall time [min]:     0.007
 Calculation of nuclear attraction integrals...
 CPU time [min]:     0.094                   Wall time [min]:     0.007
 
 Calculation of prescreening integrals...
 Memory requirement   0.000 Gb/thread,   0.009 Mb/thread,   0.000 Gb total
 CPU time [min]:     0.096                   Wall time [min]:     0.007
 
 Calculation of two-electron integrals...
 Memory requirement   0.000 Gb/thread,   0.009 Mb/thread,   0.000 Gb total
   5% done.
 100% done.
 CPU time [min]:     0.117                   Wall time [min]:     0.008

 ************************ 2025-10-08 20:08:16 *************************
 Executing scf...

 @scfsetup: integrals taken from disk
            mrcc/integ binary format
 @scfsetup: calc on blockdiagonal matrices
            using symmetry adapted basis
 @scfsetup: diis switched on
 @scfsetup: number of steps to extrapolate from  10
 @scfsetup: tolerance in energy deviation    0.100000E-12
            tolerance in density deviation    0.100000E-13
 @scfsetup: maximum number of iterations:9999
 @scfsetup: restricted closed shell hf calc
 @scfsetup: starting scf from diagonal ao guess
 @scfsetup: occupation set:
            by user in MINP
 @scfsetup: the forced occuapation is
 ALPHA OCC:   2   0   0   0   0   0   0   0
 BETA  OCC:   2   0   0   0   0   0   0   0
 @scfsetup: Parameter-set for SCF acceleration: normal
 @scfsetup: diis runs from iteration:   2
 @scfsetup: diis runs to iteration:9999
 @scfsetup: diis runs in every iteration
 @scfsetup: diiswatch is disabled                   
 @scfsetup: diis dtol criteria to switch on:      0.0000E+00
           (or the iteration number below is reached)
 @scfsetup: static damping scheme
            iteration step criteria to turn damping off: 3
 @scfsetup: dynamic level shifting
            tolarance in HOMO-LUMO gap:  0.200
            tolarance in density deviation:     0.0000E+00
            iteration step criteria to turn level shifting off: 8
 Allocation of 256.0 Mbytes of memory...
 ======================================================================
 ITERATION STEP   1
 CPU time [min]:     0.003                   Wall time [min]:     0.008
 

 SCF control                  : initial
 Damping factor/level shift   : 0.000/0.200
 DIIS [start/end/frequency]   :   2 /*** /  1

 Gradient norm:      1.8675E+00
 RMS of [F,P]:                                         0.85215665306859
 RMS of difference density:                            0.30732400028099
 Gap [au]:  0.43515633
 ALPHA OCC:   2   0   0   0   0   0   0   0
 BETA  OCC:   2   0   0   0   0   0   0   0
 
 ***HARTREE-FOCK ENERGY IN STEP   1 IS        -15.0971589024028923 [AU]
 ======================================================================
 ITERATION STEP   2
 CPU time [min]:     0.003                   Wall time [min]:     0.009
 

 SCF control                  : diis
 Damping factor/level shift   : 0.000/0.000
 DIIS [start/end/frequency]   :   2 /*** /  1

 Gradient norm:      1.2220E-02
 DIIS is running in this iteration step.
 RMS of [F,P]:                                         0.00000000000000
 RMS of difference density:                            0.00000000000000
 Gap [au]:  0.47512365
 ALPHA OCC:   2   0   0   0   0   0   0   0
 BETA  OCC:   2   0   0   0   0   0   0   0
 
 ***HARTREE-FOCK ENERGY IN STEP   2 IS        -14.3518804658204395 [AU]
 
 Step comparison  Energy Drift [au]  DIIS error drift  Gradient drift
        1           -7.4528E-01         8.5216E-01       1.8552E+00
        2            1.4352E+01         1.0000E-14       1.8552E+00
 Warning! The energy goes uphill (with respect to previous step).
 ======================================================================
 ITERATION STEP   3
 CPU time [min]:     0.003                   Wall time [min]:     0.010
 

 SCF control                  : diis
 Damping factor/level shift   : 0.000/0.000
 DIIS [start/end/frequency]   :   2 /*** /  1

 Gradient norm:      5.2094E-16
 DIIS is running in this iteration step.
 RMS of [F,P]:                                         0.00000000000000
 RMS of difference density:                            0.00000000000000
 Gap [au]:  0.47512365
 ALPHA OCC:   2   0   0   0   0   0   0   0
 BETA  OCC:   2   0   0   0   0   0   0   0
 
 ***HARTREE-FOCK ENERGY IN STEP   3 IS        -14.3518804658204395 [AU]
 
 Step comparison  Energy Drift [au]  DIIS error drift  Gradient drift
        2            0.0000E+00         2.2662E-16       1.2220E-02
 Warning! The energy goes uphill (with respect to previous step).
 ======================================================================
 
 SUCCESS...
 THE SCF ITERATION HAS CONVERGED!
 
                   Ag  B1g B2g B3g Au  B1u B2u B3u 
 FINAL ALPHA OCC:   2   0   0   0   0   0   0   0
 FINAL BETA  OCC:   2   0   0   0   0   0   0   0
 
 ***FINAL HARTREE-FOCK ENERGY:        -14.3518804658204395 [AU]
 
 Orbital energies [au]:
      Irrep         Alpha          Beta
    1   Ag        -4.483992      -4.483992
    2   Ag        -0.254038      -0.254038
 
    3   B1u        0.221086       0.221086
    4   B2u        0.221086       0.221086
    5   B3u        0.221086       0.221086
 
 RETURNING FROM SCF ALGORITHM
 ======================================================================

 ************************ 2025-10-08 20:08:17 *************************
 Executing ovirt...

 ovirt, the routine of orbital optimization and integral transformation 
Wed Oct  8 20:08:17 PDT 2025
 memory =                    256  Mb              33554432  8 byte word
 mrccboot = T
 scftype  = rhf  
 localcc  = off 
 core     = frozen
 ovirt    = off  
 ccprog   = mrcc
 dfnbasis =                      0
 dfbasis_cor =none                
 lmp2dens = on 
 dens =                      0
 verblev =                      3
 task     =                      4
 epsilon =   0.000000000000000E+000
 lmp2= on 
 localNO  =  F
 localMP2 =  F
 localMP2_TEST =  F
 LMP2_shortcut =  F
 FOCKTR   =  T
 Allocated memory:                     256  Mb
 onbasis=                     5
 RHF calculation! 
 integral transforamtion: AOs ------ MOs
 # of basis functions, # of int. blocks     5     1
100 % 
 second part
100 %
 integral transformation is completed! 
CPU and WC time           0.00           0.10     AOs -> MOs 
 occupied and 
     1 -0.2540376956
               virtual energies 
     2  0.2210859571
     3  0.2210859571
     4  0.2210859571
 inttol =   1.000000000000000E-018   18.0000000000000     
Integrals are written to fort.55
Wed Oct  8 20:08:17 PDT 2025
  ovirt terminated normally 

 ************************ 2025-10-08 20:08:18 *************************
 Executing goldstone...

 Generation of CC equations in terms of H and T...
 Generation of antisymmetrized Goldstone diagrams...
 Number of diagrams in T^1 equations:    14
 Number of diagrams in T^2 equations:    31
 Translation of diagrams to factorized equations...
 Optimizing intermediate calculation...
 Number of floating-point operations per iteration step:   6.7961E+01
 Probable CPU time per iteration step (hours):            0.00
 Required memory (Mbytes):             0.0
 Number of intermediates:                                  43
 Number of intermediates to be stored:                     20
 Length of intermediate file (Mbytes):             0.0

 ************************ 2025-10-08 20:08:18 *************************
 Executing xmrcc...

 **********************************************************************
 CC(                     2 ) calculation 
 
 
 Allocation of          256.0 Mbytes of memory...
 Number of spinorbitals:                     8
 Number of alpha electrons:                        1
 Number of beta electrons:                         1
 Spin multiplicity:                     1
 z-component of spin:  0.0
 Spatial symmetry:                      1
 Convergence criterion:  1.0E-10
 Construction of occupation graphs...
 Number of                     0 -fold excitations:                      1
 Number of                     1 -fold excitations:                      0
 Number of                     2 -fold excitations:                      3
 Total number of configurations:                      4
 Calculation of coupling coefficients...
 Length of intermediate file (Mbytes):             0.1
 
 ======================================================================
 
 Memory requirements /Mbyte/: 
               Minimal        Optimal
 Real*8:          0.0576         0.0576
 Integer:         3.3059
 Total:           3.3635         3.3635
 

 ************************ 2025-10-08 20:08:18 *************************
 Executing goldstone...

 Generation of CC equations in terms of H and T...
 Generation of antisymmetrized Goldstone diagrams...
 Number of diagrams in T^1 equations:    14
 Number of diagrams in T^2 equations:    31
 Translation of diagrams to factorized equations...
 Optimizing intermediate calculation...
 Number of floating-point operations per iteration step:   6.7961E+01
 Probable CPU time per iteration step (hours):            0.00
 Required memory (Mbytes):             0.0
 Number of intermediates:                                  43
 Number of intermediates to be stored:                     20
 Length of intermediate file (Mbytes):             0.0

 ************************ 2025-10-08 20:08:18 *************************
 Executing xmrcc...

 **********************************************************************
 CC(                     2 ) calculation 
 
 
 Allocation of          256.0 Mbytes of memory...
 Number of spinorbitals:                     8
 Number of alpha electrons:                        1
 Number of beta electrons:                         1
 Spin multiplicity:                     1
 z-component of spin:  0.0
 Spatial symmetry:                      1
 Convergence criterion:  1.0E-10
 Construction of occupation graphs...
 Number of                     0 -fold excitations:                      1
 Number of                     1 -fold excitations:                      0
 Number of                     2 -fold excitations:                      3
 Total number of configurations:                      4
 Calculation of coupling coefficients...
 Length of intermediate file (Mbytes):             0.1
 
 ======================================================================
 
 Memory requirements /Mbyte/: 
               Minimal        Optimal
 Real*8:          0.0576         0.0576
 Integer:         3.3059
 Total:           3.3635         3.3635
 

 ************************ 2025-10-08 20:08:19 *************************
 Executing mrcc...

 **********************************************************************
 CCSD calculation                                                       
 
 
 OpenMP parallel version is running.
 Number of CPU cores:  32
 Allocation of            0.1 Mbytes of memory...
 Number of spinorbitals:   8
 Number of alpha electrons:  1
 Number of beta  electrons:  1
 Spin multiplicity: 1
 z-component of spin:  0.0
 Spatial symmetry: 1
 Convergence criterion:  1.0E-10
 Construction of occupation graphs...
 Number of 0-fold excitations: 1
 Number of 1-fold excitations: 0
 Number of 2-fold excitations: 3
 Total number of determinants: 4
 Calculation of coupling coefficients...
 Initial cluster amplitudes are generated.
 Length of intermediate file (Mbytes):       0.1
 Reading integral list from unit 55...
 Sorting integrals...
 Calculation of MP denominators...
 
 Starting CC iteration...
 ======================================================================
 Norm of residual vector:     0.15035757
 CPU time [min]:     0.102                   Wall time [min]:     0.005
 
 Iteration  1  CC energy:   -14.37567153  Energy decrease:   0.02379107
 ======================================================================
 Norm of residual vector:     0.08520416
 CPU time [min]:     0.106                   Wall time [min]:     0.006
 
 Iteration  2  CC energy:   -14.40678422  Energy decrease:   0.03111269
 ======================================================================
 Norm of residual vector:     0.01136094
 CPU time [min]:     0.111                   Wall time [min]:     0.006
 
 Iteration  3  CC energy:   -14.40303574  Energy decrease:   0.00374848
 ======================================================================
 Norm of residual vector:     0.00095549
 CPU time [min]:     0.115                   Wall time [min]:     0.006
 
 Iteration  4  CC energy:   -14.40334237  Energy decrease:   0.00030663
 ======================================================================
 Norm of residual vector:     0.00004499
 CPU time [min]:     0.120                   Wall time [min]:     0.006
 
 Iteration  5  CC energy:   -14.40332804  Energy decrease:   0.00001433
 ======================================================================
 Norm of residual vector:     0.00000180
 CPU time [min]:     0.124                   Wall time [min]:     0.006
 
 Iteration  6  CC energy:   -14.40332861  Energy decrease:   0.00000057
 ======================================================================
 Norm of residual vector:     0.00000006
 CPU time [min]:     0.131                   Wall time [min]:     0.007
 
 Iteration  7  CC energy:   -14.40332860  Energy decrease:   0.00000001
 ======================================================================
 Norm of residual vector:     0.00000002
 CPU time [min]:     0.137                   Wall time [min]:     0.007
 
 Iteration  8  CC energy:   -14.40332860  Energy decrease:   3.8795E-09
 ======================================================================
 Norm of residual vector:     0.00000001
 CPU time [min]:     0.140                   Wall time [min]:     0.007
 
 Iteration  9  CC energy:   -14.40332859  Energy decrease:   1.6050E-09
 ======================================================================
 Norm of residual vector:     2.3190E-10
 CPU time [min]:     0.142                   Wall time [min]:     0.007
 
 Iteration 10  CC energy:   -14.40332859  Energy decrease:   7.0132E-11
 ======================================================================
 Norm of residual vector:     2.9380E-12
 CPU time [min]:     0.150                   Wall time [min]:     0.007
 
 Iteration 11  CC energy:   -14.40332859  Energy decrease:   9.7344E-13
 ======================================================================
 
 Iteration has converged in 11 steps.
 
 Final results:
 Total CCSD energy [au]:                      -14.403328593585
 Total MP2 energy [au]:                       -14.375671533531
 
 Dominant cluster amplitudes
 Printing threshold:  1.00E-02
 
    1.000000  Reference determinant                                     
   -0.197553  2a 2b -> 3a 3b                                            
   -0.197553  2a 2b -> 4a 4b                                            
   -0.197553  2a 2b -> 5a 5b                                            
 
 ************************ 2025-10-08 20:08:19 *************************
                      Normal termination of mrcc.
 **********************************************************************
