 &FCI NORB=  23,NELEC= 8,MS2=2,
  ORBSYM=0,0,5,6,7,0,6,7,5,10,11,2,3,0,5,6,7,0,10,11,2,3,0
  ISYM=1,
 &END
 4.741346178058241    1    1    1    1
 -0.4757860425198473    1    1    2    1
 1.13401069330825    1    1    2    2
 1.072683761554741    1    1    3    3
 1.11683566998657    1    1    4    4
 1.11683566998657    1    1    5    5
 0.1313380666801856    1    1    6    1
 -0.1793466291325047    1    1    6    2
 0.3393934285959693    1    1    6    6
 -0.1563213022181267    1    1    7    4
 0.2706442733191339    1    1    7    7
 -0.1563213022181267    1    1    8    5
 0.270644273319134    1    1    8    8
 -0.1890324592426185    1    1    9    3
 0.2872058701226362    1    1    9    9
 1.547145148759436e-18    1    1   10    1
 -1.355253993788527e-18    1    1   10    2
 1.051446716168778e-17    1    1   10    6
 0.4826814412645024    1    1   10   10
 0.4826814412645025    1    1   11   11
 0.4832780246765585    1    1   12   12
 0.4832780246765585    1    1   13   13
 -0.004191440560588466    1    1   14    1
 0.002758155514743513    1    1   14    2
 -0.00273208317606522    1    1   14    6
 5.984394341647458e-17    1    1   14   10
 0.483490848303957    1    1   14   14
 -0.480736863477535    1    1   15    3
 0.182589947485878    1    1   15    9
 0.9393687149414154    1    1   15   15
 -0.4837225381444349    1    1   16    4
 0.1535300900695566    1    1   16    7
 0.9117676411012289    1    1   16   16
 -0.4837225381444349    1    1   17    5
 0.1535300900695566    1    1   17    8
 0.9117676411012289    1    1   17   17
 0.4128405610789823    1    1   18    1
 -0.4230223429242682    1    1   18    2
 0.1876389828335801    1    1   18    6
 5.374219164528018e-17    1    1   18   10
 -0.002778238572399349    1    1   18   14
 0.8871733900306337    1    1   18   18
 3.340111182923263e-18    1    1   19    1
 1.588886092979981e-17    1    1   19    2
 6.691167002151959e-18    1    1   19    6
 0.1391827296388272    1    1   19   10
 -2.424719684716018e-17    1    1   19   14
 -1.644170354638177e-16    1    1   19   18
 0.9101702640613326    1    1   19   19
 0.139182729638827    1    1   20   11
 0.9101702640613328    1    1   20   20
 0.1400943903407286    1    1   21   12
 0.909577748413729    1    1   21   21
 0.1400943903407286    1    1   22   13
 0.909577748413729    1    1   22   22
 -0.002569438427561737    1    1   23    1
 0.00252265210031185    1    1   23    2
 -4.542330240464042e-05    1    1   23    6
 -4.198859587486214e-17    1    1   23   10
 0.1403861846516877    1    1   23   14
 0.001797304634539016    1    1   23   18
 3.307626488549468e-17    1    1   23   19
 0.9093736424599123    1    1   23   23
 -0.4757860425198474    2    1    1    1
 0.0773080611833985    2    1    2    1
 -0.02094279342120141    2    1    2    2
 -0.01347046257740812    2    1    3    3
 -0.01475287844333121    2    1    4    4
 -0.01475287844333119    2    1    5    5
 -0.02164724215440629    2    1    6    1
 0.005915356814267316    2    1    6    2
 -0.001674799580132738    2    1    6    6
 0.003069461784973919    2    1    7    4
 -0.000639791334336422    2    1    7    7
 0.003069461784973921    2    1    8    5
 -0.0006397913343364277    2    1    8    8
 0.003599224731981724    2    1    9    3
 -0.0009600458421308045    2    1    9    9
 4.816456728064245e-18    2    1   10    2
 -4.314292250533918e-05    2    1   10   10
 -4.314292250535975e-05    2    1   11   11
 -3.281622490713771e-05    2    1   12   12
 -3.281622490713771e-05    2    1   13   13
 0.0006507603343688317    2    1   14    1
 -0.0001583755209944539    2    1   14    2
 4.91879270068036e-05    2    1   14    6
 2.866251148548466e-18    2    1   14   10
 -3.111912411837978e-05    2    1   14   14
 0.01563408459127952    2    1   15    3
 -0.004172591384884766    2    1   15    9
 -0.01837976634419373    2    1   15   15
 0.01593915085577664    2    1   16    4
 -0.003313443159878362    2    1   16    7
 -0.01748562274588525    2    1   16   16
 0.0159391508557766    2    1   17    5
 -0.003313443159878344    2    1   17    8
 -0.01748562274588521    2    1   17   17
 -0.06727918500155342    2    1   18    1
 0.0184850450020308    2    1   18    2
 -0.005196136299951248    2    1   18    6
 1.182234039862116e-17    2    1   18   10
 0.0001631466539969736    2    1   18   14
 -0.01676386223722379    2    1   18   18
 -2.003774314170787e-17    2    1   19    2
 -1.212381446830323e-17    2    1   19    6
 -0.0002806313290201813    2    1   19   10
 -6.022604370092456e-18    2    1   19   14
 9.712761273417586e-17    2    1   19   18
 -0.002285659710042218    2    1   19   19
 -0.0002806313290201433    2    1   20   11
 -0.002285659710042233    2    1   20   20
 -0.0002779022668776777    2    1   21   12
 -0.002254120070822395    2    1   21   21
 -0.0002779022668776781    2    1   22   13
 -0.002254120070822381    2    1   22   22
 0.0003856542649524633    2    1   23    1
 -6.3590043036005e-05    2    1   23    2
 1.37364746472937e-05    2    1   23    6
 -4.408805533475222e-18    2    1   23   10
 -0.0002777068689487533    2    1   23   14
 6.013284917533233e-05    2    1   23   18
 -6.923707959185779e-18    2    1   23   19
 -0.002243870479555011    2    1   23   23
 1.134010693308251    2    2    1    1
 -0.0209427934212014    2    2    2    1
 0.7974074823951375    2    2    2    2
 0.762114564224349    2    2    3    3
 0.7813091386140963    2    2    4    4
 0.7813091386140962    2    2    5    5
 0.005505185293682232    2    2    6    1
 -0.09012065338551166    2    2    6    2
 0.3147912939254701    2    2    6    6
 -0.08662540175140443    2    2    7    4
 0.2559815192777251    2    2    7    7
 -0.08662540175140443    2    2    8    5
 0.2559815192777251    2    2    8    8
 -0.1069233657456214    2    2    9    3
 0.2653667234313838    2    2    9    9
 -1.189460476642103e-18    2    2   10    1
 -8.848999291681426e-18    2    2   10    2
 0.4705601539363374    2    2   10   10
 0.4705601539363375    2    2   11   11
 0.4712649774308296    2    2   12   12
 0.4712649774308296    2    2   13   13
 -0.0002171210583504759    2    2   14    1
 0.0006597638241735716    2    2   14    2
 -0.001997880470536663    2    2   14    6
 -1.494171252203402e-17    2    2   14   10
 0.4714892514206173    2    2   14   14
 -0.1847746068781946    2    2   15    3
 0.102801899310791    2    2   15    9
 0.6183071613848882    2    2   15   15
 -0.1846563276807075    2    2   16    4
 0.09025220321265531    2    2   16    7
 0.6077151757741214    2    2   16   16
 -0.1846563276807072    2    2   17    5
 0.0902522032126553    2    2   17    8
 0.6077151757741208    2    2   17   17
 0.01676093529856807    2    2   18    1
 -0.1533919640660057    2    2   18    2
 0.1115921312722609    2    2   18    6
 1.311415809860992e-16    2    2   18   10
 -0.0004851472917400099    2    2   18   14
 0.6281732523548488    2    2   18   18
 -2.992914081069588e-18    2    2   19    1
 1.026988929637021e-16    2    2   19    2
 1.983381274826585e-17    2    2   19    6
 0.1080529771908292    2    2   19   10
 7.209392646812269e-18    2    2   19   14
 -3.307610117289195e-16    2    2   19   18
 0.7495215274780456    2    2   19   19
 0.1080529771908291    2    2   20   11
 0.7495215274780456    2    2   20   20
 0.1087044401379739    2    2   21   12
 0.7493788482383332    2    2   21   21
 0.1087044401379739    2    2   22   13
 0.7493788482383332    2    2   22   22
 -0.0001295124480395559    2    2   23    1
 0.001458916450501087    2    2   23    2
 -3.086650471843906e-05    2    2   23    6
 1.30974347305557e-17    2    2   23   10
 0.108906224631211    2    2   23   14
 0.001792046198901362    2    2   23   18
 3.277982782569849e-18    2    2   23   19
 0.7493250902913126    2    2   23   23
 0.03318244709153329    3    1    3    1
 0.03541562745958914    3    1    3    2
 -0.006780583892764556    3    1    6    3
 -0.008854686756197626    3    1    9    1
 -0.008417646568626917    3    1    9    2
 0.004352057798531574    3    1    9    6
 1.027222416435177e-18    3    1   10    3
 0.007953267297530533    3    1   12    5
 3.017406615185373e-05    3    1   12    8
 0.007953267297530531    3    1   13    4
 3.017406615185373e-05    3    1   13    7
 0.009364454357579278    3    1   14    3
 -0.0003802421283176712    3    1   14    9
 -0.03902993908468113    3    1   15    1
 -0.01998433080146539    3    1   15    2
 0.008001320511947688    3    1   15    6
 -1.878999179184398e-18    3    1   15   10
 0.002380943570019969    3    1   15   14
 0.002518531199674483    3    1   16   13
 0.00251853119967448    3    1   17   12
 -0.01779912425625434    3    1   18    3
 0.00536072405137623    3    1   18    9
 0.02512457097503817    3    1   18   15
 -1.321077974680199e-18    3    1   19    3
 2.724860240404119e-18    3    1   19   15
 0.02405155585308042    3    1   21    5
 -0.00559033189800388    3    1   21    8
 -0.01444084071540008    3    1   21   17
 0.02405155585308043    3    1   22    4
 -0.005590331898003881    3    1   22    7
 -0.01444084071540008    3    1   22   16
 0.02701049035481096    3    1   23    3
 -0.007752231649386437    3    1   23    9
 -0.01756260456154457    3    1   23   15
 0.03541562745958916    3    2    3    1
 0.1550040511779884    3    2    3    2
 -0.01462058746406908    3    2    6    3
 -0.009454185548279689    3    2    9    1
 -0.0310090300573923    3    2    9    2
 0.03199686865420562    3    2    9    6
 1.051729423657674e-18    3    2   10    3
 0.05704894327970361    3    2   12    5
 0.006002695504409087    3    2   12    8
 0.05704894327970361    3    2   13    4
 0.006002695504409087    3    2   13    7
 0.06717178293748378    3    2   14    3
 0.004349677410509574    3    2   14    9
 -0.037634801771356    3    2   15    1
 -0.03936576680888453    3    2   15    2
 0.03672758764055978    3    2   15    6
 -3.926827739236033e-18    3    2   15   10
 0.04039087967340535    3    2   15   14
 0.03771375022554611    3    2   16   13
 0.03771375022554611    3    2   17   12
 -0.02195429792239921    3    2   18    3
 0.01106008853432142    3    2   18    9
 0.1032509706161483    3    2   18   15
 1.911583944055105e-18    3    2   19    3
 -3.257452319729011e-18    3    2   19    9
 0.1024342206141085    3    2   21    5
 -0.02767394576255086    3    2   21    8
 -0.04684256933552639    3    2   21   17
 0.1024342206141085    3    2   22    4
 -0.02767394576255086    3    2   22    7
 -0.04684256933552639    3    2   22   16
 0.1151564845401174    3    2   23    3
 -0.03743702955185663    3    2   23    9
 -0.05793862746924269    3    2   23   15
 1.07268376155474    3    3    1    1
 -0.01347046257740806    3    3    2    1
 0.7621145642243493    3    3    2    2
 0.7842156686799912    3    3    3    3
 0.7241951881887495    3    3    4    4
 0.7241951881887495    3    3    5    5
 0.003344312572535842    3    3    6    1
 -0.08321325640908707    3    3    6    2
 0.3117618671562677    3    3    6    6
 -0.07718382877095825    3    3    7    4
 0.2511028958542998    3    3    7    7
 -0.07718382877095825    3    3    8    5
 0.2511028958542998    3    3    8    8
 -0.109810247507701    3    3    9    3
 0.2709764259164822    3    3    9    9
 8.248645131920573e-18    3    3   10    2
 4.126155340980745e-17    3    3   10    6
 0.4423405747578954    3    3   10   10
 0.4423405747578953    3    3   11   11
 0.470920826554462    3    3   12   12
 0.470920826554462    3    3   13   13
 0.0006885499848816426    3    3   14    1
 0.02740840144453755    3    3   14    2
 0.005178308572322174    3    3   14    6
 -2.054160453627225e-17    3    3   14   10
 0.4797994102399728    3    3   14   14
 -0.1880070165552903    3    3   15    3
 0.1066265660145043    3    3   15    9
 0.6374362486054622    3    3   15   15
 -0.1681643771593988    3    3   16    4
 0.08366156232447802    3    3   16    7
 0.5751399822709364    3    3   16   16
 -0.1681643771593988    3    3   17    5
 0.08366156232447805    3    3   17    8
 0.5751399822709364    3    3   17   17
 0.01057284040566709    3    3   18    1
 -0.1421332032607549    3    3   18    2
 0.1060667201691527    3    3   18    6
 -1.356782859967053e-16    3    3   18   10
 0.01736671373370969    3    3   18   14
 0.6083053257819513    3    3   18   18
 -4.290846687496703e-18    3    3   19    1
 -3.156239051742435e-17    3    3   19    2
 -4.760773098341141e-17    3    3   19    6
 0.09042026291547277    3    3   19   10
 4.352059458955913e-17    3    3   19   14
 2.806108232153193e-16    3    3   19   18
 0.6765044486367701    3    3   19   19
 0.0904202629154728    3    3   20   11
 0.6765044486367701    3    3   20   20
 0.1035727468511152    3    3   21   12
 0.7348546603116117    3    3   21   21
 0.1035727468511152    3    3   22   13
 0.7348546603116117    3    3   22   22
 0.006379562817766408    3    3   23    1
 0.05624744758340536    3    3   23    2
 -0.01623033207635896    3    3   23    6
 8.331569785426482e-18    3    3   23   10
 0.1078180701645713    3    3   23   14
 -0.0158899697525841    3    3   23   18
 5.144965837695981e-17    3    3   23   19
 0.7544282404996389    3    3   23   23
 0.03624389907064374    4    1    4    1
 0.03772023144385706    4    1    4    2
 -0.007520621826659211    4    1    6    4
 -0.007528168403956123    4    1    7    1
 -0.007037330204206091    4    1    7    2
 0.004191986398264554    4    1    7    6
 -0.008203843689366171    4    1   10    4
 -4.04284649546305e-05    4    1   10    7
 0.008203843689366172    4    1   11    5
 4.042846495462963e-05    4    1   11    8
 0.00832944637487508    4    1   13    3
 -0.0003245728233518956    4    1   13    9
 -0.004682054811679159    4    1   14    4
 -2.746803428456483e-05    4    1   14    7
 0.002354353134432544    4    1   15   13
 -0.03976055332904439    4    1   16    1
 -0.01974856532665979    4    1   16    2
 0.008221600989490613    4    1   16    6
 -0.002633321679030155    4    1   16   10
 -0.001742978213378502    4    1   16   14
 0.002633321679030157    4    1   17   11
 -0.01993426636628422    4    1   18    4
 0.004677534864360913    4    1   18    7
 0.02561806925158494    4    1   18   16
 -0.02504282306081518    4    1   19    4
 0.005814216866088603    4    1   19    7
 0.01503719779645755    4    1   19   16
 0.02504282306081517    4    1   20    5
 -0.005814216866088602    4    1   20    8
 -0.01503719779645755    4    1   20   17
 0.02429084005429968    4    1   22    3
 -0.00696082560213715    4    1   22    9
 -0.01576044225219503    4    1   22   15
 -0.01437894277350458    4    1   23    4
 0.003334053605082398    4    1   23    7
 0.008594716768567226    4    1   23   16
 0.03772023144385706    4    2    4    1
 0.1587526189670535    4    2    4    2
 -0.01765006128705562    4    2    6    4
 -0.007886783946847609    4    2    7    1
 -0.02454506154571742    4    2    7    2
 0.03096199027040141    4    2    7    6
 -0.05684540599374147    4    2   10    4
 -0.005796439466421518    4    2   10    7
 0.05684540599374145    4    2   11    5
 0.005796439466421518    4    2   11    8
 0.05840223758301108    4    2   13    3
 0.003370765323354221    4    2   13    9
 -0.03329451509575362    4    2   14    4
 -0.003143916144272347    4    2   14    7
 0.03543717199839912    4    2   15   13
 -0.03746626099244527    4    2   16    1
 -0.03661017490754107    4    2   16    2
 0.03712310380862686    4    2   16    6
 -0.03725593025888504    4    2   16   10
 -0.02257333347257053    4    2   16   14
 0.03725593025888509    4    2   17   11
 -0.02925847617389394    4    2   18    4
 0.009973269389552283    4    2   18    7
 0.1026157392716794    4    2   18   16
 -0.1040946119019931    4    2   19    4
 0.02785564855758625    4    2   19    7
 0.04746323715927458    4    2   19   16
 0.1040946119019932    4    2   20    5
 -0.02785564855758627    4    2   20    8
 -0.04746323715927471    4    2   20   17
 0.1012222586977525    4    2   22    3
 -0.03258229638140456    4    2   22    9
 -0.05051989151858339    4    2   22   15
 -0.05991369469323946    4    2   23    4
 0.0159815124442302    4    2   23    7
 0.02703084986539026    4    2   23   16
 0.0400014049482345    4    3    4    3
 -0.005684847649469706    4    3    7    3
 -0.007878870745900404    4    3    9    4
 0.005275184504554764    4    3    9    7
 0.01384176917038828    4    3   12   11
 0.0007512684286369784    4    3   13    1
 0.02324600913358687    4    3   13    2
 0.005937122606861892    4    3   13    6
 -0.01384176917038828    4    3   13   10
 0.007718197722251142    4    3   14   13
 -0.01172975943646835    4    3   15    4
 0.005314920239153762    4    3   15    7
 -0.009519295258626763    4    3   16    3
 0.00571043660275547    4    3   16    9
 0.02637893150815778    4    3   16   15
 0.01509569045167128    4    3   18   13
 -0.006534664675109313    4    3   19   13
 0.006534664675109317    4    3   20   12
 0.006441599908037517    4    3   21   11
 0.02977218953262442    4    3   21   20
 0.005793619366084832    4    3   22    1
 0.04863102411833121    4    3   22    2
 -0.01419134997038324    4    3   22    6
 -0.006441599908037512    4    3   22   10
 0.003716357041120022    4    3   22   14
 -0.01575323471321808    4    3   22   18
 -0.02977218953262441    4    3   22   19
 0.00367252024887797    4    3   23   13
 0.01724637548938145    4    3   23   22
 1.11683566998657    4    4    1    1
 -0.01475287844333114    4    4    2    1
 0.7813091386140968    4    4    2    2
 0.7241951881887495    4    4    3    3
 0.8254280447716797    4    4    4    4
 0.7428046127142128    4    4    5    5
 0.00364911009542074    4    4    6    1
 -0.0874223481660631    4    4    6    2
 0.313616916423964    4    4    6    6
 -0.09319408779627515    4    4    7    4
 0.2619748298790289    4    4    7    7
 -0.08065005156565015    4    4    8    5
 0.2522448931190358    4    4    8    8
 -0.09950991873070281    4    4    9    3
 0.2609211923354715    4    4    9    9
 -0.0007516279884741551    4    4   10    1
 -0.02303824315814751    4    4   10    2
 -0.005790558146705944    4    4   10    6
 0.4740408533145709    4    4   10   10
 0.474040853314571    4    4   11   11
 0.4472036340922265    4    4   12   12
 0.4745001949926063    4    4   13   13
 -0.0006265196703936851    4    4   14    1
 -0.01295387899586518    4    4   14    2
 -0.005268537138151496    4    4   14    6
 0.01602604466913533    4    4   14   10
 0.4567637650300905    4    4   14   14
 -0.1779541918783421    4    4   15    3
 0.09824110217327639    4    4   15    9
 0.5975784823115076    4    4   15   15
 -0.2005543480409881    4    4   16    4
 0.0967720885789521    4    4   16    7
 0.6403119163590929    4    4   16   16
 -0.1781311240423818    4    4   17    5
 0.08630627435010402    4    4   17    8
 0.5876453570024803    4    4   17   17
 0.01150839657172856    4    4   18    1
 -0.1524421737130089    4    4   18    2
 0.1097397620734699    4    4   18    6
 -0.01441361420492254    4    4   18   10
 -0.009265174901010902    4    4   18   14
 0.6204930496932338    4    4   18   18
 -0.00595658898956521    4    4   19    1
 -0.04952422488899472    4    4   19    2
 0.01433044110046441    4    4   19    6
 0.1073364811702263    4    4   19   10
 0.0078199210388639    4    4   19   14
 0.01654657739246743    4    4   19   18
 0.7525670805692167    4    4   19   19
 0.1073364811702262    4    4   20   11
 0.752567080569217    4    4   20   20
 0.09456721965813258    4    4   21   12
 0.6917465286473461    4    4   21   21
 0.1079298285916969    4    4   22   13
 0.7521077388911819    4    4   22   22
 -0.003579898971671785    4    4   23    1
 -0.02745574454179782    4    4   23    2
 0.008302229463838134    4    4   23    6
 0.00770463723544349    4    4   23   10
 0.09926312320728453    4    4   23   14
 0.01104154583076851    4    4   23   18
 0.03479046672268404    4    4   23   19
 0.7116398728748112    4    4   23   23
 0.03624389907064374    5    1    5    1
 0.03772023144385706    5    1    5    2
 -0.007520621826659211    5    1    6    5
 -0.007528168403956123    5    1    8    1
 -0.007037330204206091    5    1    8    2
 0.004191986398264553    5    1    8    6
 0.008203843689366169    5    1   10    5
 4.042846495463094e-05    5    1   10    8
 0.008203843689366171    5    1   11    4
 4.042846495462963e-05    5    1   11    7
 0.00832944637487508    5    1   12    3
 -0.0003245728233518956    5    1   12    9
 -0.004682054811679159    5    1   14    5
 -2.746803428456483e-05    5    1   14    8
 0.002354353134432544    5    1   15   12
 0.00263332167903016    5    1   16   11
 -0.03976055332904439    5    1   17    1
 -0.01974856532665979    5    1   17    2
 0.008221600989490612    5    1   17    6
 0.002633321679030155    5    1   17   10
 -0.001742978213378503    5    1   17   14
 -0.01993426636628422    5    1   18    5
 0.004677534864360909    5    1   18    8
 0.02561806925158497    5    1   18   17
 0.02504282306081518    5    1   19    5
 -0.005814216866088605    5    1   19    8
 -0.01503719779645756    5    1   19   17
 0.02504282306081518    5    1   20    4
 -0.005814216866088602    5    1   20    7
 -0.01503719779645756    5    1   20   16
 0.02429084005429968    5    1   21    3
 -0.00696082560213715    5    1   21    9
 -0.01576044225219503    5    1   21   15
 -0.01437894277350458    5    1   23    5
 0.003334053605082398    5    1   23    8
 0.008594716768567226    5    1   23   17
 0.03772023144385706    5    2    5    1
 0.1587526189670535    5    2    5    2
 -0.01765006128705562    5    2    6    5
 -0.007886783946847609    5    2    8    1
 -0.02454506154571742    5    2    8    2
 0.0309619902704014    5    2    8    6
 0.05684540599374147    5    2   10    5
 0.005796439466421518    5    2   10    8
 0.05684540599374145    5    2   11    4
 0.005796439466421522    5    2   11    7
 0.05840223758301107    5    2   12    3
 0.003370765323354221    5    2   12    9
 -0.03329451509575362    5    2   14    5
 -0.00314391614427235    5    2   14    8
 0.03543717199839913    5    2   15   12
 0.03725593025888507    5    2   16   11
 -0.03746626099244527    5    2   17    1
 -0.03661017490754107    5    2   17    2
 0.03712310380862684    5    2   17    6
 0.03725593025888504    5    2   17   10
 -0.02257333347257052    5    2   17   14
 -0.02925847617389405    5    2   18    5
 0.009973269389552307    5    2   18    8
 0.1026157392716796    5    2   18   17
 0.1040946119019932    5    2   19    5
 -0.02785564855758626    5    2   19    8
 -0.04746323715927467    5    2   19   17
 0.1040946119019932    5    2   20    4
 -0.02785564855758627    5    2   20    7
 -0.0474632371592747    5    2   20   16
 0.1012222586977525    5    2   21    3
 -0.03258229638140456    5    2   21    9
 -0.05051989151858339    5    2   21   15
 -0.05991369469323948    5    2   23    5
 0.01598151244423021    5    2   23    8
 0.0270308498653903    5    2   23   17
 0.0400014049482345    5    3    5    3
 -0.005684847649469706    5    3    8    3
 -0.007878870745900404    5    3    9    5
 0.005275184504554763    5    3    9    8
 0.0007512684286369784    5    3   12    1
 0.02324600913358688    5    3   12    2
 0.005937122606861892    5    3   12    6
 0.01384176917038828    5    3   12   10
 0.01384176917038828    5    3   13   11
 0.007718197722251144    5    3   14   12
 -0.01172975943646835    5    3   15    5
 0.005314920239153764    5    3   15    8
 -0.009519295258626763    5    3   17    3
 0.005710436602755472    5    3   17    9
 0.02637893150815779    5    3   17   15
 0.01509569045167125    5    3   18   12
 0.006534664675109316    5    3   19   12
 0.006534664675109317    5    3   20   13
 0.005793619366084832    5    3   21    1
 0.04863102411833121    5    3   21    2
 -0.01419134997038324    5    3   21    6
 0.006441599908037512    5    3   21   10
 0.003716357041120028    5    3   21   14
 -0.01575323471321808    5    3   21   18
 0.02977218953262442    5    3   21   19
 0.006441599908037517    5    3   22   11
 0.02977218953262442    5    3   22   20
 0.003672520248877974    5    3   23   12
 0.01724637548938146    5    3   23   21
 0.04131171602873257    5    4    5    4
 -0.006272018115312336    5    4    7    5
 -0.006272018115312336    5    4    8    4
 0.00486496837999646    5    4    8    7
 0.0007516279884741546    5    4   11    1
 0.02303824315814757    5    4   11    2
 0.005790558146706109    5    4   11    6
 1.149311439538757e-18    5    4   11   10
 0.01364828045018982    5    4   13   12
 -0.01602604466913544    5    4   14   11
 -0.01121161199930182    5    4   16    5
 0.005232907114423812    5    4   16    8
 -0.01121161199930182    5    4   17    4
 0.005232907114423812    5    4   17    7
 0.0263332796783045    5    4   17   16
 0.01441361420492213    5    4   18   11
 -3.418236052285495e-18    5    4   19   11
 0.005956588989565205    5    4   20    1
 0.04952422488899474    5    4   20    2
 -0.01433044110046447    5    4   20    6
 -4.284387868949571e-18    5    4   20   10
 -0.007819921038863782    5    4   20   14
 -0.01654657739246779    5    4   20   18
 7.909999355947879e-18    5    4   20   19
 0.006681304466782167    5    4   21   13
 0.006681304466782167    5    4   22   12
 0.03018060512191786    5    4   22   21
 -0.007704637235443393    5    4   23   11
 -0.0347904667226842    5    4   23   20
 1.11683566998657    5    5    1    1
 -0.01475287844333113    5    5    2    1
 0.7813091386140968    5    5    2    2
 0.7241951881887495    5    5    3    3
 0.7428046127142128    5    5    4    4
 0.8254280447716797    5    5    5    5
 0.003649110095420768    5    5    6    1
 -0.0874223481660631    5    5    6    2
 0.313616916423964    5    5    6    6
 -0.08065005156565015    5    5    7    4
 0.2522448931190359    5    5    7    7
 -0.09319408779627515    5    5    8    5
 0.2619748298790289    5    5    8    8
 -0.09950991873070281    5    5    9    3
 0.2609211923354715    5    5    9    9
 0.0007516279884741564    5    5   10    1
 0.02303824315814754    5    5   10    2
 0.005790558146706043    5    5   10    6
 0.4740408533145707    5    5   10   10
 0.474040853314571    5    5   11   11
 0.4745001949926063    5    5   12   12
 0.4472036340922265    5    5   13   13
 -0.0006265196703936827    5    5   14    1
 -0.01295387899586519    5    5   14    2
 -0.005268537138151466    5    5   14    6
 -0.01602604466913538    5    5   14   10
 0.4567637650300904    5    5   14   14
 -0.1779541918783421    5    5   15    3
 0.09824110217327639    5    5   15    9
 0.5975784823115076    5    5   15   15
 -0.1781311240423819    5    5   16    4
 0.08630627435010407    5    5   16    7
 0.5876453570024804    5    5   16   16
 -0.2005543480409881    5    5   17    5
 0.0967720885789521    5    5   17    8
 0.6403119163590929    5    5   17   17
 0.01150839657172844    5    5   18    1
 -0.1524421737130089    5    5   18    2
 0.1097397620734699    5    5   18    6
 0.01441361420492215    5    5   18   10
 -0.009265174901010857    5    5   18   14
 0.6204930496932339    5    5   18   18
 0.005956588989565191    5    5   19    1
 0.04952422488899464    5    5   19    2
 -0.0143304411004645    5    5   19    6
 0.1073364811702263    5    5   19   10
 -0.007819921038863874    5    5   19   14
 -0.01654657739246677    5    5   19   18
 0.752567080569217    5    5   19   19
 0.107336481170226    5    5   20   11
 0.7525670805692171    5    5   20   20
 0.1079298285916969    5    5   21   12
 0.7521077388911819    5    5   21   21
 0.09456721965813258    5    5   22   13
 0.6917465286473461    5    5   22   22
 -0.003579898971671786    5    5   23    1
 -0.0274557445417978    5    5   23    2
 0.008302229463838115    5    5   23    6
 -0.007704637235443451    5    5   23   10
 0.09926312320728457    5    5   23   14
 0.01104154583076844    5    5   23   18
 -0.03479046672268411    5    5   23   19
 0.7116398728748111    5    5   23   23
 0.1313380666801856    6    1    1    1
 -0.02164724215440627    6    1    2    1
 0.005505185293682254    6    1    2    2
 0.003344312572535952    6    1    3    3
 0.003649110095420845    6    1    4    4
 0.003649110095420904    6    1    5    5
 0.006067842029429597    6    1    6    1
 -0.001577613899748943    6    1    6    2
 0.0004234151264951339    6    1    6    6
 -0.0007678926546614289    6    1    7    4
 0.0001479510030893798    6    1    7    7
 -0.0007678926546614405    6    1    8    5
 0.0001479510030893912    6    1    8    8
 -0.0009040566267448672    6    1    9    3
 0.0002306042288788351    6    1    9    9
 -6.572972662074757e-18    6    1   10    2
 -6.27453930293887e-18    6    1   10    6
 -6.204761493996596e-05    6    1   10   10
 -6.204761493996875e-05    6    1   11   11
 -6.051230804147379e-05    6    1   12   12
 -6.051230804147379e-05    6    1   13   13
 -0.0001810542096575875    6    1   14    1
 4.742211554320846e-05    6    1   14    2
 -1.180395255489373e-05    6    1   14    6
 -4.444173980468992e-18    6    1   14   10
 -5.963025276580078e-05    6    1   14   14
 -0.004020820782274521    6    1   15    3
 0.001059994107651038    6    1   15    9
 0.004705743508703882    6    1   15   15
 -0.004088390119275653    6    1   16    4
 0.0008358932701077286    6    1   16    7
 0.004458147806357732    6    1   16   16
 -0.004088390119275732    6    1   17    5
 0.0008358932701077406    6    1   17    8
 0.00445814780635784    6    1   17   17
 0.01880982276042586    6    1   18    1
 -0.004935758953132567    6    1   18    2
 0.001372027632997236    6    1   18    6
 2.677487703447813e-17    6    1   18   10
 -4.156202568414056e-05    6    1   18   14
 0.004391872735569907    6    1   18   18
 -1.211436885528353e-18    6    1   19    1
 5.947415220875958e-18    6    1   19    2
 1.22219869678987e-17    6    1   19    6
 3.693539336845669e-05    6    1   19   10
 -8.607048470576048e-17    6    1   19   18