 &FCI NORB=   5,NELEC= 6,MS2=2,
  ORBSYM=0,0,6,7,5
  ISYM=1,
 &END
 4.753346160938841    1    1    1    1
 -0.4671466000289837    1    1    2    1
 1.112811794980589    1    1    2    2
 1.115431021524183    1    1    3    3
 1.115431021524183    1    1    4    4
 1.115431021524183    1    1    5    5
 -0.4671466000289837    2    1    1    1
 0.07244801978120756    2    1    2    1
 -0.020986843595559    2    1    2    2
 -0.01334612031125506    2    1    3    3
 -0.01334612031125506    2    1    4    4
 -0.01334612031125506    2    1    5    5
 1.112811794980589    2    2    1    1
 -0.02098684359555905    2    2    2    1
 0.7934998537496308    2    2    2    2
 0.8033987989995809    2    2    3    3
 0.8033987989995809    2    2    4    4
 0.8033987989995809    2    2    5    5
 0.02572795272371213    3    1    3    1
 0.03564901530196801    3    1    3    2
 0.03564901530196802    3    2    3    1
 0.1724739659338323    3    2    3    2
 1.115431021524183    3    3    1    1
 -0.01334612031125509    3    3    2    1
 0.8033987989995813    3    3    2    2
 0.880159094519358    3    3    3    3
 0.7852702012674082    3    3    4    4
 0.7852702012674082    3    3    5    5
 0.02572795272371213    4    1    4    1
 0.03564901530196801    4    1    4    2
 0.03564901530196802    4    2    4    1
 0.1724739659338323    4    2    4    2
 0.04744444662597526    4    3    4    3
 1.115431021524183    4    4    1    1
 -0.01334612031125509    4    4    2    1
 0.8033987989995813    4    4    2    2
 0.7852702012674082    4    4    3    3
 0.880159094519358    4    4    4    4
 0.7852702012674082    4    4    5    5
 0.02572795272371213    5    1    5    1
 0.03564901530196801    5    1    5    2
 0.03564901530196802    5    2    5    1
 0.1724739659338323    5    2    5    2
 0.04744444662597525    5    3    5    3
 0.04744444662597525    5    4    5    4
 1.115431021524183    5    5    1    1
 -0.01334612031125509    5    5    2    1
 0.8033987989995813    5    5    2    2
 0.7852702012674082    5    5    3    3
 0.7852702012674082    5    5    4    4
 0.880159094519358    5    5    5    5
 -31.60208662377083    1    1  0  0
 0.5861237148509908    2    1  0  0
 -6.936143974476245    2    2  0  0
 -6.450723439875714    3    3  0  0
 -6.450723439875714    4    4  0  0
 -6.450723439875714    5    5  0  0
 0  0  0  0  0
