 &FCI NORB=   5,NELEC= 6,MS2=2,
  ORBSYM=0,0,5,6,7
  ISYM=1,
 &END
 4.759891909298573    1    1    1    1
 -0.4547076990710802    1    1    2    1
 1.109682126493424    1    1    2    2
 1.115521852661333    1    1    3    3
 1.115521852661333    1    1    4    4
 1.115521852661333    1    1    5    5
 -0.4547076990710806    2    1    1    1
 0.06931835129404301    2    1    2    1
 -0.01935499500493107    2    1    2    2
 -0.01223799148013493    2    1    3    3
 -0.01223799148013493    2    1    4    4
 -0.01223799148013493    2    1    5    5
 1.109682126493424    2    2    1    1
 -0.0193549950049311    2    2    2    1
 0.7932134423642266    2    2    2    2
 0.8033079678624313    2    2    3    3
 0.8033079678624313    2    2    4    4
 0.8033079678624313    2    2    5    5
 0.02547667654267258    3    1    3    1
 0.03512713160078078    3    1    3    2
 0.03512713160078079    3    2    3    1
 0.1727252421148718    3    2    3    2
 1.115521852661333    3    3    1    1
 -0.0122379914801349    3    3    2    1
 0.8033079678624316    3    3    2    2
 0.880159094519358    3    3    3    3
 0.7852702012674082    3    3    4    4
 0.7852702012674082    3    3    5    5
 0.02547667654267258    4    1    4    1
 0.03512713160078078    4    1    4    2
 0.03512713160078079    4    2    4    1
 0.1727252421148718    4    2    4    2
 0.04744444662597525    4    3    4    3
 1.115521852661333    4    4    1    1
 -0.0122379914801349    4    4    2    1
 0.8033079678624316    4    4    2    2
 0.7852702012674082    4    4    3    3
 0.880159094519358    4    4    4    4
 0.7852702012674082    4    4    5    5
 0.02547667654267258    5    1    5    1
 0.03512713160078078    5    1    5    2
 0.03512713160078079    5    2    5    1
 0.1727252421148718    5    2    5    2
 0.04744444662597525    5    3    5    3
 0.04744444662597526    5    4    5    4
 1.115521852661333    5    5    1    1
 -0.0122379914801349    5    5    2    1
 0.8033079678624316    5    5    2    2
 0.7852702012674082    5    5    3    3
 0.7852702012674082    5    5    4    4
 0.880159094519358    5    5    5    5
 -31.60593749493968    1    1  0  0
 0.4985386770362837    2    1  0  0
 -6.932293103307384    2    2  0  0
 -6.450723439875714    3    3  0  0
 -6.450723439875714    4    4  0  0
 -6.450723439875714    5    5  0  0
 0  0  0  0  0
