#INFO: **** input file is /lustre09/project/6004934/jaafar1/PySCF-MRCC/Boron/cation/dawCV5Z/RHF/input.py ****
import pyscf
from pyscf import cc, lib, tools, scf, symm, ao2mo
from pyscf.gto.basis import parse_gaussian
from pyscf.scf import atom_hf

name = 'out'
mol = pyscf.M(
    atom = '''
        B
    ''',
    unit = 'angstrom',
    basis = {
            'B' : parse_gaussian.load('B-d-aug-cc-pwCV5Z.gbs', 'B')
    },
    charge = +1,
    spin = 0,
    symmetry = True,
    verbose = 9,
    symmetry_subgroup = 'D2h',
    output = name +'.txt',
    max_memory = 32000,
)

original_AtomSphAverageRHF = atom_hf.AtomSphAverageRHF

class CustomAtomSphAverageRHF(original_AtomSphAverageRHF):
    def __init__(self, mol):
        super().__init__(mol)
        self.max_cycle = 9999
        self.direct_scf = False

atom_hf.AtomSphAverageRHF = CustomAtomSphAverageRHF

mf = mol.RHF().set(
    conv_tol=1e-13,
    max_cycle=9999,
    ddm_tol=1e-12,
    direct_scf=False,
    chkfile=name + '.chk',
    init_guess='atom',
    irrep_nelec={'Ag': 4}
)

mf.kernel()

atom_hf.AtomSphAverageRHF = original_AtomSphAverageRHF

#pyscf.tools.fcidump.from_chkfile_uhf('FCIdump',name+'.chk',tol=1e-18, float_format='% 0.20E',molpro_orbsym=False,orbsym=None)
pyscf.tools.fcidump.from_scf(mf,'fort.55',tol=1e-18, float_format='% 0.20E',molpro_orbsym=False)
#MRCCInterface.run_mrcc(mf, fort_file='fort.55', mrcc_input_file='MINP', tol=1e-18, float_format='% 0.20E', molpro_orbsym=False)
#INFO: ******************** input file end ********************


System: uname_result(system='Linux', node='rc31902', release='5.14.0-687.15.1.el9_8.x86_64', version='#1 SMP PREEMPT_DYNAMIC Thu Jun 11 08:51:45 EDT 2026', machine='x86_64')  Threads 4
Python 3.13.2 (main, Feb  5 2025, 15:06:39) [GCC 13.3.0]
numpy 2.2.2  scipy 1.15.1  h5py 3.13.0
Date: Thu Jun 18 03:44:02 2026
PySCF version 2.10.0
PySCF path  /home/jaafar1/links/projects/rrg-tzeng/jaafar1/VENV/MRCCInterface/lib/python3.13/site-packages/pyscf

[CONFIG] ARGPARSE = False
[CONFIG] DEBUG = False
[CONFIG] MAX_MEMORY = 4000
[CONFIG] TMPDIR = /tmp
[CONFIG] UNIT = angstrom
[CONFIG] VERBOSE = 3
[CONFIG] conf_file = None
[INPUT] verbose = 9
[INPUT] max_memory = 32000 
[INPUT] num. atoms = 1
[INPUT] num. electrons = 4
[INPUT] charge = 1
[INPUT] spin (= nelec alpha-beta = 2S) = 0
[INPUT] symmetry True subgroup D2h
[INPUT] Mole.unit = angstrom
[INPUT] Symbol           X                Y                Z      unit          X                Y                Z       unit  Magmom
[INPUT]  1 B      0.000000000000   0.000000000000   0.000000000000 AA    0.000000000000   0.000000000000   0.000000000000 Bohr   0.0
[INPUT] ---------------- BASIS SET ---------------- 
[INPUT] l, kappa, [nprim/nctr], expnt,             c_1 c_2 ...
[INPUT] B
[INPUT] 0    0    [1    /1   ]  63.419               1
[INPUT] 0    0    [1    /1   ]  28.595               1
[INPUT] 0    0    [1    /1   ]  12.894               1
[INPUT] 0    0    [1    /1   ]  5.814                1
[INPUT] 0    0    [14   /2   ]  68260             2.4e-05 -5e-06
                                10230             0.000185 -3.7e-05
                                2328              0.00097 -0.000196
                                660.4             0.004056 -0.000824
                                216.2             0.014399 -0.002923
                                78.6              0.043901 -0.009138
                                30.98             0.113057 -0.024105
                                12.96             0.233825 -0.054755
                                5.659             0.35396 -0.096943
                                2.556             0.301547 -0.137485
                                1.175             0.087521 -0.044565
                                0.4249            0.002819 0.324345
                                0.1712            4.3e-05 0.570414
                                0.06913           7.8e-05 0.243444
[INPUT] 0    0    [1    /1   ]  1.175                1
[INPUT] 0    0    [1    /1   ]  0.4249               1
[INPUT] 0    0    [1    /1   ]  0.1712               1
[INPUT] 0    0    [1    /1   ]  0.06913              1
[INPUT] 0    0    [1    /1   ]  0.0261               1
[INPUT] 0    0    [1    /1   ]  0.00985              1
[INPUT] 1    0    [1    /1   ]  68.613               1
[INPUT] 1    0    [1    /1   ]  26.548               1
[INPUT] 1    0    [1    /1   ]  10.272               1
[INPUT] 1    0    [1    /1   ]  3.974                1
[INPUT] 1    0    [1    /1   ]  0.7008               1
[INPUT] 1    0    [1    /1   ]  0.2901               1
[INPUT] 1    0    [8    /1   ]  66.44             0.000838
                                15.71             0.006409
                                4.936             0.028081
                                1.77              0.092152
                                0.7008            0.224164
                                0.2901            0.369915
                                0.1211            0.374441
                                0.04973           0.139086
[INPUT] 1    0    [1    /1   ]  0.1211               1
[INPUT] 1    0    [1    /1   ]  0.04973              1
[INPUT] 1    0    [1    /1   ]  0.0157               1
[INPUT] 1    0    [1    /1   ]  0.00496              1
[INPUT] 2    0    [1    /1   ]  43.437               1
[INPUT] 2    0    [1    /1   ]  14.671               1
[INPUT] 2    0    [1    /1   ]  4.955                1
[INPUT] 2    0    [1    /1   ]  2.01                 1
[INPUT] 2    0    [1    /1   ]  0.796                1
[INPUT] 2    0    [1    /1   ]  0.316                1
[INPUT] 2    0    [1    /1   ]  0.125                1
[INPUT] 2    0    [1    /1   ]  0.0431               1
[INPUT] 2    0    [1    /1   ]  0.0149               1
[INPUT] 3    0    [1    /1   ]  20.45                1
[INPUT] 3    0    [1    /1   ]  4.292                1
[INPUT] 3    0    [1    /1   ]  1.215                1
[INPUT] 3    0    [1    /1   ]  0.525                1
[INPUT] 3    0    [1    /1   ]  0.227                1
[INPUT] 3    0    [1    /1   ]  0.0843               1
[INPUT] 3    0    [1    /1   ]  0.0313               1
[INPUT] 4    0    [1    /1   ]  4.388                1
[INPUT] 4    0    [1    /1   ]  1.124                1
[INPUT] 4    0    [1    /1   ]  0.461                1
[INPUT] 4    0    [1    /1   ]  0.202                1
[INPUT] 4    0    [1    /1   ]  0.0885               1
[INPUT] 5    0    [1    /1   ]  0.834                1
[INPUT] 5    0    [1    /1   ]  0.384                1
[INPUT] 5    0    [1    /1   ]  0.177                1

nuclear repulsion = 0
point group symmetry = SO3, use subgroup D2h
symmetry origin: [0. 0. 0.]
symmetry axis x: [1. 0. 0.]
symmetry axis y: [0. 1. 0.]
symmetry axis z: [0. 0. 1.]
num. orbitals of irrep Ag = 45
num. orbitals of irrep B1g = 19
num. orbitals of irrep B2g = 19
num. orbitals of irrep B3g = 19
num. orbitals of irrep Au = 13
num. orbitals of irrep B1u = 34
num. orbitals of irrep B2u = 34
num. orbitals of irrep B3u = 34
number of shells = 46
number of NR pGTOs = 250
number of NR cGTOs = 217
basis = {'B': [[0, [63.419, 1.0]], [0, [28.595, 1.0]], [0, [12.894, 1.0]], [0, [5.814, 1.0]], [0, [68260.0, 2.4e-05, -5e-06], [10230.0, 0.000185, -3.7e-05], [2328.0, 0.00097, -0.000196], [660.4, 0.004056, -0.000824], [216.2, 0.014399, -0.002923], [78.6, 0.043901, -0.009138], [30.98, 0.113057, -0.024105], [12.96, 0.233825, -0.054755], [5.659, 0.35396, -0.096943], [2.556, 0.301547, -0.137485], [1.175, 0.087521, -0.044565], [0.4249, 0.002819, 0.324345], [0.1712, 4.3e-05, 0.570414], [0.06913, 7.8e-05, 0.243444]], [0, [1.175, 1.0]], [0, [0.4249, 1.0]], [0, [0.1712, 1.0]], [0, [0.06913, 1.0]], [0, [0.0261, 1.0]], [0, [0.00985, 1.0]], [1, [68.613, 1.0]], [1, [26.548, 1.0]], [1, [10.272, 1.0]], [1, [3.974, 1.0]], [1, [0.7008, 1.0]], [1, [0.2901, 1.0]], [1, [66.44, 0.000838], [15.71, 0.006409], [4.936, 0.028081], [1.77, 0.092152], [0.7008, 0.224164], [0.2901, 0.369915], [0.1211, 0.374441], [0.04973, 0.139086]], [1, [0.1211, 1.0]], [1, [0.04973, 1.0]], [1, [0.0157, 1.0]], [1, [0.00496, 1.0]], [2, [43.437, 1.0]], [2, [14.671, 1.0]], [2, [4.955, 1.0]], [2, [2.01, 1.0]], [2, [0.796, 1.0]], [2, [0.316, 1.0]], [2, [0.125, 1.0]], [2, [0.0431, 1.0]], [2, [0.0149, 1.0]], [3, [20.45, 1.0]], [3, [4.292, 1.0]], [3, [1.215, 1.0]], [3, [0.525, 1.0]], [3, [0.227, 1.0]], [3, [0.0843, 1.0]], [3, [0.0313, 1.0]], [4, [4.388, 1.0]], [4, [1.124, 1.0]], [4, [0.461, 1.0]], [4, [0.202, 1.0]], [4, [0.0885, 1.0]], [5, [0.834, 1.0]], [5, [0.384, 1.0]], [5, [0.177, 1.0]]]}
ecp = {}
bas 0, expnt(s) = [63.419]
bas 1, expnt(s) = [28.595]
bas 2, expnt(s) = [12.894]
bas 3, expnt(s) = [5.814]
bas 4, expnt(s) = [6.826e+04 1.023e+04 2.328e+03 6.604e+02 2.162e+02 7.860e+01 3.098e+01
 1.296e+01 5.659e+00 2.556e+00 1.175e+00 4.249e-01 1.712e-01 6.913e-02]
bas 5, expnt(s) = [1.175]
bas 6, expnt(s) = [0.4249]
bas 7, expnt(s) = [0.1712]
bas 8, expnt(s) = [0.06913]
bas 9, expnt(s) = [0.0261]
bas 10, expnt(s) = [0.00985]
bas 11, expnt(s) = [68.613]
bas 12, expnt(s) = [26.548]
bas 13, expnt(s) = [10.272]
bas 14, expnt(s) = [3.974]
bas 15, expnt(s) = [0.7008]
bas 16, expnt(s) = [0.2901]
bas 17, expnt(s) = [6.644e+01 1.571e+01 4.936e+00 1.770e+00 7.008e-01 2.901e-01 1.211e-01
 4.973e-02]
bas 18, expnt(s) = [0.1211]
bas 19, expnt(s) = [0.04973]
bas 20, expnt(s) = [0.0157]
bas 21, expnt(s) = [0.00496]
bas 22, expnt(s) = [43.437]
bas 23, expnt(s) = [14.671]
bas 24, expnt(s) = [4.955]
bas 25, expnt(s) = [2.01]
bas 26, expnt(s) = [0.796]
bas 27, expnt(s) = [0.316]
bas 28, expnt(s) = [0.125]
bas 29, expnt(s) = [0.0431]
bas 30, expnt(s) = [0.0149]
bas 31, expnt(s) = [20.45]
bas 32, expnt(s) = [4.292]
bas 33, expnt(s) = [1.215]
bas 34, expnt(s) = [0.525]
bas 35, expnt(s) = [0.227]
bas 36, expnt(s) = [0.0843]
bas 37, expnt(s) = [0.0313]
bas 38, expnt(s) = [4.388]
bas 39, expnt(s) = [1.124]
bas 40, expnt(s) = [0.461]
bas 41, expnt(s) = [0.202]
bas 42, expnt(s) = [0.0885]
bas 43, expnt(s) = [0.834]
bas 44, expnt(s) = [0.384]
bas 45, expnt(s) = [0.177]
CPU time:         1.24
arg.atm = [[ 5 20  1 23  0  0]]
arg.bas = [[  0   0   1   1   0  24  25   0]
 [  0   0   1   1   0  26  27   0]
 [  0   0   1   1   0  28  29   0]
 [  0   0   1   1   0  30  31   0]
 [  0   0  14   2   0  32  46   0]
 [  0   0   1   1   0  74  75   0]
 [  0   0   1   1   0  76  77   0]
 [  0   0   1   1   0  78  79   0]
 [  0   0   1   1   0  80  81   0]
 [  0   0   1   1   0  82  83   0]
 [  0   0   1   1   0  84  85   0]
 [  0   1   1   1   0  86  87   0]
 [  0   1   1   1   0  88  89   0]
 [  0   1   1   1   0  90  91   0]
 [  0   1   1   1   0  92  93   0]
 [  0   1   1   1   0  94  95   0]
 [  0   1   1   1   0  96  97   0]
 [  0   1   8   1   0  98 106   0]
 [  0   1   1   1   0 114 115   0]
 [  0   1   1   1   0 116 117   0]
 [  0   1   1   1   0 118 119   0]
 [  0   1   1   1   0 120 121   0]
 [  0   2   1   1   0 122 123   0]
 [  0   2   1   1   0 124 125   0]
 [  0   2   1   1   0 126 127   0]
 [  0   2   1   1   0 128 129   0]
 [  0   2   1   1   0 130 131   0]
 [  0   2   1   1   0 132 133   0]
 [  0   2   1   1   0 134 135   0]
 [  0   2   1   1   0 136 137   0]
 [  0   2   1   1   0 138 139   0]
 [  0   3   1   1   0 140 141   0]
 [  0   3   1   1   0 142 143   0]
 [  0   3   1   1   0 144 145   0]
 [  0   3   1   1   0 146 147   0]
 [  0   3   1   1   0 148 149   0]
 [  0   3   1   1   0 150 151   0]
 [  0   3   1   1   0 152 153   0]
 [  0   4   1   1   0 154 155   0]
 [  0   4   1   1   0 156 157   0]
 [  0   4   1   1   0 158 159   0]
 [  0   4   1   1   0 160 161   0]
 [  0   4   1   1   0 162 163   0]
 [  0   5   1   1   0 164 165   0]
 [  0   5   1   1   0 166 167   0]
 [  0   5   1   1   0 168 169   0]]
arg.env = [ 0.00000000e+00  0.00000000e+00  0.00000000e+00  0.00000000e+00
  0.00000000e+00  0.00000000e+00  0.00000000e+00  0.00000000e+00
  0.00000000e+00  0.00000000e+00  0.00000000e+00  0.00000000e+00
  0.00000000e+00  0.00000000e+00  0.00000000e+00  0.00000000e+00
  0.00000000e+00  0.00000000e+00  0.00000000e+00  0.00000000e+00
  0.00000000e+00  0.00000000e+00  0.00000000e+00  0.00000000e+00
  6.34190000e+01  5.67779315e+01  2.85950000e+01  3.12415520e+01
  1.28940000e+01  1.71911834e+01  5.81400000e+00  9.45956781e+00
  6.82600000e+04  1.02300000e+04  2.32800000e+03  6.60400000e+02
  2.16200000e+02  7.86000000e+01  3.09800000e+01  1.29600000e+01
  5.65900000e+00  2.55600000e+00  1.17500000e+00  4.24900000e-01
  1.71200000e-01  6.91300000e-02  2.56065444e-01  4.75437544e-01
  8.21341915e-01  1.33496004e+00  2.05111079e+00  2.92790069e+00
  3.75079681e+00  4.03515029e+00  3.28113408e+00  1.54007074e+00
  2.49548918e-01  3.74822061e-03  2.89142077e-05  2.65680415e-05
 -5.33469813e-02 -9.50875333e-02 -1.65961914e-01 -2.71204969e-01
 -4.16376025e-01 -6.09443143e-01 -7.99711475e-01 -9.44914833e-01
 -8.98641266e-01 -7.02168087e-01 -1.27068365e-01  4.31258222e-01
  3.83559840e-01  8.29209225e-02  1.17500000e+00  2.85130335e+00
  4.24900000e-01  1.32962776e+00  1.71200000e-01  6.72423441e-01
  6.91300000e-02  3.40615920e-01  2.61000000e-02  1.64057241e-01
  9.85000000e-03  7.89936529e-02  6.86130000e+01  5.76092741e+02
  2.65480000e+01  1.75802139e+02  1.02720000e+01  5.36479530e+01
  3.97400000e+00  1.63688897e+01  7.00800000e-01  1.87058311e+00
  2.90100000e-01  6.21110761e-01  6.64400000e+01  1.57100000e+01
  4.93600000e+00  1.77000000e+00  7.00800000e-01  2.90100000e-01
  1.21100000e-01  4.97300000e-02  4.63730054e-01  5.84782945e-01
  6.02720139e-01  5.48852369e-01  4.19317202e-01  2.29758083e-01
  7.80364978e-02  9.52885430e-03  1.21100000e-01  2.08408089e-01
  4.97300000e-02  6.85105520e-02  1.57000000e-02  1.62128348e-02
  4.96000000e-03  3.84004654e-03  4.34370000e+01  1.91771505e+03
  1.46710000e+01  2.86968278e+02  4.95500000e+00  4.29393819e+01
  2.01000000e+00  8.85365279e+00  7.96000000e-01  1.75035949e+00
  3.16000000e-01  3.47521582e-01  1.25000000e-01  6.85680674e-02
  4.31000000e-02  1.06381132e-02  1.49000000e-02  1.65807952e-03
  2.04500000e+01  1.75416449e+03  4.29200000e+00  5.22991604e+01
  1.21500000e+00  3.05708129e+00  5.25000000e-01  4.62773833e-01
  2.27000000e-01  7.01566011e-02  8.43000000e-02  7.55305078e-03
  3.13000000e-02  8.12802669e-04  4.38800000e+00  7.67630646e+01
  1.12400000e+00  1.81353716e+00  4.61000000e-01  1.56349554e-01
  2.02000000e-01  1.61672208e-02  8.85000000e-02  1.67114101e-03
  8.34000000e-01  4.39584550e-01  3.84000000e-01  3.53451016e-02
  1.77000000e-01  2.85210737e-03]
ecpbas  = []


******** <class 'pyscf.scf.hf_symm.SymAdaptedRHF'> ********
method = SymAdaptedRHF
initial guess = atom
damping factor = 0
level_shift factor = 0
DIIS = <class 'pyscf.scf.diis.CDIIS'>
diis_start_cycle = 1
diis_space = 8
diis_damp = 0
SCF conv_tol = 1e-13
SCF conv_tol_grad = None
SCF ddm_tol = 1e-12
SCF max_cycles = 9999
direct_scf = False
chkfile to save SCF result = out.chk
max_memory 32000 MB (current use 124 MB)
Freeze 4 electrons in irreps ['Ag']
    0 free electrons in irreps B1g B2g B3g Au B1u B2u B3u
cond(S) = 1554540.4572062162

WARN: Singularity detected in overlap matrix (condition number = 1.55e+06). SCF may be inaccurate and hard to converge.

Set gradient conv threshold to 3.16228e-07
Initial guess from superposition of atomic densities.
Spherically averaged atomic HF for {'B'}


******** <class '__main__.CustomAtomSphAverageRHF'> ********
method = CustomAtomSphAverageRHF
initial guess = minao
damping factor = 0
level_shift factor = 0
DIIS = <class 'pyscf.scf.diis.CDIIS'>
diis_start_cycle = 1
diis_space = 8
diis_damp = 0
SCF conv_tol = 1e-09
SCF conv_tol_grad = None
SCF ddm_tol = 1e-10
SCF max_cycles = 9999
direct_scf = False
chkfile to save SCF result = /tmp/tmpx5hwd3sw
max_memory 32000 MB (current use 128 MB)
atom = B
Set gradient conv threshold to 3.16228e-05
Initial guess from minao.
Nelec from initial guess = 4.999999422901664
E1 = -32.57440961031944  E_coul = 8.23026650309482
init E= -24.3441431072246
l = 0  e_0 = -7.61979162
l = 0  e_1 = -0.471855703
l = 0  e_2 = 0.0164047771
l = 0  e_3 = 0.0915413535
l = 0  e_4 = 0.351980823
l = 0  e_5 = 1.19846657
l = 0  e_6 = 3.88173203
l = 0  e_7 = 11.5366045
l = 0  e_8 = 31.2968726
l = 0  e_9 = 80.3399243
l = 0  e_10 = 204.703431
l = 0  e_11 = 710.539311
l = 1  e_0 = 0.00815349752
l = 1  e_1 = 0.0183043705
l = 1  e_2 = 0.0680190246
l = 1  e_3 = 0.23688568
l = 1  e_4 = 0.689528181
l = 1  e_5 = 1.8111555
l = 1  e_6 = 4.66700857
l = 1  e_7 = 12.0615668
l = 1  e_8 = 32.0146315
l = 1  e_9 = 87.9213141
l = 1  e_10 = 248.764452
l = 2  e_0 = 0.0481964029
l = 2  e_1 = 0.169528351
l = 2  e_2 = 0.477223253
l = 2  e_3 = 1.20418082
l = 2  e_4 = 2.99656148
l = 2  e_5 = 7.62553928
l = 2  e_6 = 19.8978007
l = 2  e_7 = 56.981449
l = 2  e_8 = 177.373437
l = 3  e_0 = 0.131696987
l = 3  e_1 = 0.41496994
l = 3  e_2 = 1.10565699
l = 3  e_3 = 2.65637771
l = 3  e_4 = 6.29818398
l = 3  e_5 = 19.2841545
l = 3  e_6 = 88.2220564
l = 4  e_0 = 0.447860077
l = 4  e_1 = 1.20908813
l = 4  e_2 = 2.86432254
l = 4  e_3 = 6.8816121
l = 4  e_4 = 23.4645089
l = 5  e_0 = 1.06535211
l = 5  e_1 = 2.68947398
l = 5  e_2 = 6.20342089
    CPU time for initialize scf     11.74 sec, wall time      3.17 sec
l = 0  e_0 = -7.61979162
l = 0  e_1 = -0.471855703
l = 0  e_2 = 0.0164047771
l = 0  e_3 = 0.0915413535
l = 0  e_4 = 0.351980823
l = 0  e_5 = 1.19846657
l = 0  e_6 = 3.88173203
l = 0  e_7 = 11.5366045
l = 0  e_8 = 31.2968726
l = 0  e_9 = 80.3399243
l = 0  e_10 = 204.703431
l = 0  e_11 = 710.539311
l = 1  e_0 = 0.00815349752
l = 1  e_1 = 0.0183043705
l = 1  e_2 = 0.0680190246
l = 1  e_3 = 0.23688568
l = 1  e_4 = 0.689528181
l = 1  e_5 = 1.8111555
l = 1  e_6 = 4.66700857
l = 1  e_7 = 12.0615668
l = 1  e_8 = 32.0146315
l = 1  e_9 = 87.9213141
l = 1  e_10 = 248.764452
l = 2  e_0 = 0.0481964029
l = 2  e_1 = 0.169528351
l = 2  e_2 = 0.477223253
l = 2  e_3 = 1.20418082
l = 2  e_4 = 2.99656148
l = 2  e_5 = 7.62553928
l = 2  e_6 = 19.8978007
l = 2  e_7 = 56.981449
l = 2  e_8 = 177.373437
l = 3  e_0 = 0.131696987
l = 3  e_1 = 0.41496994
l = 3  e_2 = 1.10565699
l = 3  e_3 = 2.65637771
l = 3  e_4 = 6.29818398
l = 3  e_5 = 19.2841545
l = 3  e_6 = 88.2220564
l = 4  e_0 = 0.447860077
l = 4  e_1 = 1.20908813
l = 4  e_2 = 2.86432254
l = 4  e_3 = 6.8816121
l = 4  e_4 = 23.4645089
l = 5  e_0 = 1.06535211
l = 5  e_1 = 2.68947398
l = 5  e_2 = 6.20342089
l = 0  occ = 2 + 0
l = 1  occ = 0 + 0.3333
l = 2  occ = 0 + 0
l = 3  occ = 0 + 0
E1 = -30.847462932909583  E_coul = 6.5338943553716495
cycle= 1 E= -24.3135685775379  delta_E= 0.0306  |g|=    0  |ddm|= 0.316
    CPU time for cycle= 1      1.03 sec, wall time      0.26 sec
diis-norm(errvec)=0.215795
diis-c [-0.04656749  1.        ]
l = 0  e_0 = -8.11631377
l = 0  e_1 = -0.748863602
l = 0  e_2 = -0.0242899288
l = 0  e_3 = 0.0345608253
l = 0  e_4 = 0.227487556
l = 0  e_5 = 0.9608912
l = 0  e_6 = 3.52411328
l = 0  e_7 = 11.0991175
l = 0  e_8 = 30.8167241
l = 0  e_9 = 79.8382258
l = 0  e_10 = 204.189043
l = 0  e_11 = 710.015471
l = 1  e_0 = -0.179203843
l = 1  e_1 = -0.00691092074
l = 1  e_2 = 0.0238548947
l = 1  e_3 = 0.131097702
l = 1  e_4 = 0.495669903
l = 1  e_5 = 1.51956898
l = 1  e_6 = 4.28678292
l = 1  e_7 = 11.616106
l = 1  e_8 = 31.5297102
l = 1  e_9 = 87.4158421
l = 1  e_10 = 248.246978
l = 2  e_0 = 0.0241211499
l = 2  e_1 = 0.101870934
l = 2  e_2 = 0.334678704
l = 2  e_3 = 0.972256316
l = 2  e_4 = 2.6687691
l = 2  e_5 = 7.21387957
l = 2  e_6 = 19.4312308
l = 2  e_7 = 56.4837738
l = 2  e_8 = 176.859813
l = 3  e_0 = 0.0969449623
l = 3  e_1 = 0.325496998
l = 3  e_2 = 0.930783616
l = 3  e_3 = 2.38266862
l = 3  e_4 = 5.92482637
l = 3  e_5 = 18.8205205
l = 3  e_6 = 87.716665
l = 4  e_0 = 0.3743877
l = 4  e_1 = 1.06374799
l = 4  e_2 = 2.62168961
l = 4  e_3 = 6.52623502
l = 4  e_4 = 23.0012913
l = 5  e_0 = 0.952593659
l = 5  e_1 = 2.4893957
l = 5  e_2 = 5.89351817
l = 0  occ = 2 + 0
l = 1  occ = 0 + 0.3333
l = 2  occ = 0 + 0
l = 3  occ = 0 + 0
E1 = -32.473193658107185  E_coul = 8.109167249618604
cycle= 2 E= -24.3640264084886  delta_E= -0.0505  |g|=    0  |ddm|= 0.436
    CPU time for cycle= 2      1.05 sec, wall time      0.26 sec
diis-norm(errvec)=0.166161
diis-c [-0.00161356  0.43196311  0.56803689]
l = 0  e_0 = -7.8527628
l = 0  e_1 = -0.602294468
l = 0  e_2 = 0.00190365305
l = 0  e_3 = 0.0643216744
l = 0  e_4 = 0.292809329
l = 0  e_5 = 1.08584719
l = 0  e_6 = 3.71299646
l = 0  e_7 = 11.3306691
l = 0  e_8 = 31.0715097
l = 0  e_9 = 80.1056776
l = 0  e_10 = 204.464938
l = 0  e_11 = 710.29786
l = 1  e_0 = -0.067869902
l = 1  e_1 = 0.0063458842
l = 1  e_2 = 0.0450359459
l = 1  e_3 = 0.186381622
l = 1  e_4 = 0.598508161
l = 1  e_5 = 1.67435548
l = 1  e_6 = 4.48843278
l = 1  e_7 = 11.8520351
l = 1  e_8 = 31.7869765
l = 1  e_9 = 87.6854759
l = 1  e_10 = 248.524909
l = 2  e_0 = 0.0385550212
l = 2  e_1 = 0.139906137
l = 2  e_2 = 0.412074846
l = 2  e_3 = 1.09640687
l = 2  e_4 = 2.84292838
l = 2  e_5 = 7.43195932
l = 2  e_6 = 19.6782049
l = 2  e_7 = 56.7481406
l = 2  e_8 = 177.134858
l = 3  e_0 = 0.116821704
l = 3  e_1 = 0.375279242
l = 3  e_2 = 1.02571482
l = 3  e_3 = 2.52894604
l = 3  e_4 = 6.12287509
l = 3  e_5 = 19.0657175
l = 3  e_6 = 87.9854362
l = 4  e_0 = 0.415668621
l = 4  e_1 = 1.14341445
l = 4  e_2 = 2.75196781
l = 4  e_3 = 6.71499489
l = 4  e_4 = 23.2461702
l = 5  e_0 = 1.01517211
l = 5  e_1 = 2.59774522
l = 5  e_2 = 6.05869486
l = 0  occ = 2 + 0
l = 1  occ = 0 + 0.3333
l = 2  occ = 0 + 0
l = 3  occ = 0 + 0
E1 = -32.13742097867175  E_coul = 7.754330584681624
cycle= 3 E= -24.3830903939901  delta_E= -0.0191  |g|=    0  |ddm|= 0.186
    CPU time for cycle= 3      1.05 sec, wall time      0.26 sec
diis-norm(errvec)=0.0389929
diis-c [-1.78946396e-04  1.07640095e-01 -7.90105634e-02  9.71370469e-01]
l = 0  e_0 = -7.81218349
l = 0  e_1 = -0.563698233
l = 0  e_2 = 0.0112930242
l = 0  e_3 = 0.0782647517
l = 0  e_4 = 0.317947549
l = 0  e_5 = 1.12244765
l = 0  e_6 = 3.75449619
l = 0  e_7 = 11.3724114
l = 0  e_8 = 31.1123819
l = 0  e_9 = 80.1455819
l = 0  e_10 = 204.503832
l = 0  e_11 = 710.335739
l = 1  e_0 = -0.0423569621
l = 1  e_1 = 0.0109136827
l = 1  e_2 = 0.0557058285
l = 1  e_3 = 0.208753072
l = 1  e_4 = 0.631063738
l = 1  e_5 = 1.71332287
l = 1  e_6 = 4.53000107
l = 1  e_7 = 11.8936865
l = 1  e_8 = 31.8277703
l = 1  e_9 = 87.7252188
l = 1  e_10 = 248.563555
l = 2  e_0 = 0.0452796716
l = 2  e_1 = 0.156717253
l = 2  e_2 = 0.440790887
l = 2  e_3 = 1.1337601
l = 2  e_4 = 2.884449
l = 2  e_5 = 7.47420775
l = 2  e_6 = 19.7197348
l = 2  e_7 = 56.7885502
l = 2  e_8 = 177.173995
l = 3  e_0 = 0.127091412
l = 3  e_1 = 0.397821448
l = 3  e_2 = 1.05995496
l = 3  e_3 = 2.56967494
l = 3  e_4 = 6.16549447
l = 3  e_5 = 19.107511
l = 3  e_6 = 88.0255356
l = 4  e_0 = 0.4358843
l = 4  e_1 = 1.175426
l = 4  e_2 = 2.79199767
l = 4  e_3 = 6.75794699
l = 4  e_4 = 23.2881651
l = 5  e_0 = 1.04331955
l = 5  e_1 = 2.63578852
l = 5  e_2 = 6.1014146
l = 0  occ = 2 + 0
l = 1  occ = 0 + 0.3333
l = 2  occ = 0 + 0
l = 3  occ = 0 + 0
E1 = -32.02625719081867  E_coul = 7.641647868702035
cycle= 4 E= -24.3846093221166  delta_E= -0.00152  |g|=    0  |ddm|= 0.0306
    CPU time for cycle= 4      1.04 sec, wall time      0.26 sec
diis-norm(errvec)=0.00662876
diis-c [-4.64764215e-06  1.98137931e-03  4.46896390e-02 -3.70260655e-01
  1.32358964e+00]
l = 0  e_0 = -7.80657036
l = 0  e_1 = -0.557313052
l = 0  e_2 = 0.0134786978
l = 0  e_3 = 0.0815021248
l = 0  e_4 = 0.323134333
l = 0  e_5 = 1.12847607
l = 0  e_6 = 3.76031869
l = 0  e_7 = 11.3780331
l = 0  e_8 = 31.1180293
l = 0  e_9 = 80.1513836
l = 0  e_10 = 204.509854
l = 0  e_11 = 710.342002
l = 1  e_0 = -0.0384618986
l = 1  e_1 = 0.0121390195
l = 1  e_2 = 0.0583922306
l = 1  e_3 = 0.2133952
l = 1  e_4 = 0.636805117
l = 1  e_5 = 1.71931455
l = 1  e_6 = 4.53580898
l = 1  e_7 = 11.8993147
l = 1  e_8 = 31.8334232
l = 1  e_9 = 87.7310498
l = 1  e_10 = 248.569632
l = 2  e_0 = 0.0471100023
l = 2  e_1 = 0.160634324
l = 2  e_2 = 0.44646242
l = 2  e_3 = 1.13992011
l = 2  e_4 = 2.89036703
l = 2  e_5 = 7.47984199
l = 2  e_6 = 19.7252941
l = 2  e_7 = 56.7942389
l = 2  e_8 = 177.179954
l = 3  e_0 = 0.129917221
l = 3  e_1 = 0.402957513
l = 3  e_2 = 1.06621625
l = 3  e_3 = 2.57585099
l = 3  e_4 = 6.17123821
l = 3  e_5 = 19.1130174
l = 3  e_6 = 88.0312655
l = 4  e_0 = 0.440845492
l = 4  e_1 = 1.18172608
l = 4  e_2 = 2.79834947
l = 4  e_3 = 6.76376719
l = 4  e_4 = 23.2936355
l = 5  e_0 = 1.0494511
l = 5  e_1 = 2.64235474
l = 5  e_2 = 6.10748535
l = 0  occ = 2 + 0
l = 1  occ = 0 + 0.3333
l = 2  occ = 0 + 0
l = 3  occ = 0 + 0
E1 = -32.00313964030895  E_coul = 7.618476644161101
cycle= 5 E= -24.3846629961479  delta_E= -5.37e-05  |g|=    0  |ddm|= 0.00668
    CPU time for cycle= 5      1.04 sec, wall time      0.26 sec
diis-norm(errvec)=0.000470753
diis-c [-2.35547246e-08 -4.31568487e-04 -2.23711121e-03  3.87092204e-02
 -2.25235235e-01  1.18919469e+00]
l = 0  e_0 = -7.80679913
l = 0  e_1 = -0.557320666
l = 0  e_2 = 0.0135162015
l = 0  e_3 = 0.0815570253
l = 0  e_4 = 0.323191913
l = 0  e_5 = 1.12847805
l = 0  e_6 = 3.76024666
l = 0  e_7 = 11.3778869
l = 0  e_8 = 31.1178191
l = 0  e_9 = 80.1511181
l = 0  e_10 = 204.509534
l = 0  e_11 = 710.341629
l = 1  e_0 = -0.0385211198
l = 1  e_1 = 0.0121642119
l = 1  e_2 = 0.0584342538
l = 1  e_3 = 0.213467504
l = 1  e_4 = 0.636839729
l = 1  e_5 = 1.71929647
l = 1  e_6 = 4.53571846
l = 1  e_7 = 11.8991578
l = 1  e_8 = 31.8332053
l = 1  e_9 = 87.7307745
l = 1  e_10 = 248.5693
l = 2  e_0 = 0.0471449333
l = 2  e_1 = 0.160688934
l = 2  e_2 = 0.44651163
l = 2  e_3 = 1.13994136
l = 2  e_4 = 2.89032982
l = 2  e_5 = 7.47973525
l = 2  e_6 = 19.725119
l = 2  e_7 = 56.7939977
l = 2  e_8 = 177.179647
l = 3  e_0 = 0.129968603
l = 3  e_1 = 0.403025319
l = 3  e_2 = 1.06626543
l = 3  e_3 = 2.57585365
l = 3  e_4 = 6.17117072
l = 3  e_5 = 19.1128549
l = 3  e_6 = 88.0310069
l = 4  e_0 = 0.440917643
l = 4  e_1 = 1.18178937
l = 4  e_2 = 2.79837214
l = 4  e_3 = 6.76371723
l = 4  e_4 = 23.2934791
l = 5  e_0 = 1.04952458
l = 5  e_1 = 2.6424008
l = 5  e_2 = 6.10746914
l = 0  occ = 2 + 0
l = 1  occ = 0 + 0.3333
l = 2  occ = 0 + 0
l = 3  occ = 0 + 0
E1 = -32.00312540489422  E_coul = 7.618462300563725
cycle= 6 E= -24.3846631043305  delta_E= -1.08e-07  |g|=    0  |ddm|= 0.00104
    CPU time for cycle= 6      1.04 sec, wall time      0.26 sec
diis-norm(errvec)=9.63871e-05
diis-c [-1.38391462e-10  1.42155680e-04 -4.05369449e-05 -4.06733821e-03
  1.66132293e-02 -9.69722220e-02  1.08432471e+00]
l = 0  e_0 = -7.80674609
l = 0  e_1 = -0.557278977
l = 0  e_2 = 0.0135162342
l = 0  e_3 = 0.0815595856
l = 0  e_4 = 0.323204184
l = 0  e_5 = 1.1285115
l = 0  e_6 = 3.7602931
l = 0  e_7 = 11.3779376
l = 0  e_8 = 31.1178716
l = 0  e_9 = 80.1511717
l = 0  e_10 = 204.509589
l = 0  e_11 = 710.341685
l = 1  e_0 = -0.0384974133
l = 1  e_1 = 0.0121595322
l = 1  e_2 = 0.0584340657
l = 1  e_3 = 0.213476617
l = 1  e_4 = 0.636864089
l = 1  e_5 = 1.7193349
l = 1  e_6 = 4.5357656
l = 1  e_7 = 11.8992089
l = 1  e_8 = 31.8332581
l = 1  e_9 = 87.7308283
l = 1  e_10 = 248.569354
l = 2  e_0 = 0.0471410376
l = 2  e_1 = 0.160690642
l = 2  e_2 = 0.446527661
l = 2  e_3 = 1.1399745
l = 2  e_4 = 2.89037383
l = 2  e_5 = 7.47978452
l = 2  e_6 = 19.7251708
l = 2  e_7 = 56.794051
l = 2  e_8 = 177.179701
l = 3  e_0 = 0.129963144
l = 3  e_1 = 0.403030655
l = 3  e_2 = 1.06629084
l = 3  e_3 = 2.57589391
l = 3  e_4 = 6.17121847
l = 3  e_5 = 19.1129065
l = 3  e_6 = 88.0310604
l = 4  e_0 = 0.440918117
l = 4  e_1 = 1.18180943
l = 4  e_2 = 2.79840983
l = 4  e_3 = 6.76376461
l = 4  e_4 = 23.2935307
l = 5  e_0 = 1.0495364
l = 5  e_1 = 2.6424331
l = 5  e_2 = 6.10751416
l = 0  occ = 2 + 0
l = 1  occ = 0 + 0.3333
l = 2  occ = 0 + 0
l = 3  occ = 0 + 0
E1 = -32.00305620286348  E_coul = 7.618393095266526
cycle= 7 E= -24.384663107597  delta_E= -3.27e-09  |g|=    0  |ddm|= 0.000124
    CPU time for cycle= 7      1.05 sec, wall time      0.26 sec
diis-norm(errvec)=4.05829e-05
diis-c [-5.82687013e-12  2.87240229e-05 -6.66811701e-05  3.55228315e-04
 -3.85714977e-03  2.93725868e-02 -2.92341473e-01  1.26650876e+00]
l = 0  e_0 = -7.80670731
l = 0  e_1 = -0.557249884
l = 0  e_2 = 0.0135202709
l = 0  e_3 = 0.0815670525
l = 0  e_4 = 0.323218855
l = 0  e_5 = 1.12853646
l = 0  e_6 = 3.76032591
l = 0  e_7 = 11.3779743
l = 0  e_8 = 31.1179097
l = 0  e_9 = 80.1512099
l = 0  e_10 = 204.509626
l = 0  e_11 = 710.341721
l = 1  e_0 = -0.0384795637
l = 1  e_1 = 0.0121610508
l = 1  e_2 = 0.0584390103
l = 1  e_3 = 0.213488892
l = 1  e_4 = 0.63688454
l = 1  e_5 = 1.71936279
l = 1  e_6 = 4.5357992
l = 1  e_7 = 11.8992459
l = 1  e_8 = 31.8332965
l = 1  e_9 = 87.7308665
l = 1  e_10 = 248.569392
l = 2  e_0 = 0.0471436854
l = 2  e_1 = 0.160698868
l = 2  e_2 = 0.446543862
l = 2  e_3 = 1.13999873
l = 2  e_4 = 2.89040473
l = 2  e_5 = 7.47982003
l = 2  e_6 = 19.7252089
l = 2  e_7 = 56.7940897
l = 2  e_8 = 177.179739
l = 3  e_0 = 0.129967313
l = 3  e_1 = 0.403041703
l = 3  e_2 = 1.06631084
l = 3  e_3 = 2.57592171
l = 3  e_4 = 6.17125217
l = 3  e_5 = 19.1129446
l = 3  e_6 = 88.0310993
l = 4  e_0 = 0.44092732
l = 4  e_1 = 1.18182691
l = 4  e_2 = 2.79843575
l = 4  e_3 = 6.76379751
l = 4  e_4 = 23.2935689
l = 5  e_0 = 1.04955051
l = 5  e_1 = 2.64245595
l = 5  e_2 = 6.10754466
l = 0  occ = 2 + 0
l = 1  occ = 0 + 0.3333
l = 2  occ = 0 + 0
l = 3  occ = 0 + 0
E1 = -32.002965321518865  E_coul = 7.618302213062642
cycle= 8 E= -24.3846631084562  delta_E= -8.59e-10  |g|=    0  |ddm|= 5.38e-05
    CPU time for cycle= 8      1.07 sec, wall time      0.27 sec
diis-norm(errvec)=4.67036e-06
diis-c [-5.89942106e-14  1.89394037e-06  6.49577740e-07 -7.33206475e-05
  4.81512036e-04 -3.68706878e-03  4.14981438e-02 -2.19419486e-01
  1.18119768e+00]
l = 0  e_0 = -7.80670258
l = 0  e_1 = -0.55724637
l = 0  e_2 = 0.0135208305
l = 0  e_3 = 0.0815680872
l = 0  e_4 = 0.323220757
l = 0  e_5 = 1.12853948
l = 0  e_6 = 3.76032987
l = 0  e_7 = 11.3779788
l = 0  e_8 = 31.1179144
l = 0  e_9 = 80.1512146
l = 0  e_10 = 204.509631
l = 0  e_11 = 710.341726
l = 1  e_0 = -0.0384774487
l = 1  e_1 = 0.0121613688
l = 1  e_2 = 0.05843978
l = 1  e_3 = 0.213490483
l = 1  e_4 = 0.636887047
l = 1  e_5 = 1.71936616
l = 1  e_6 = 4.53580325
l = 1  e_7 = 11.8992504
l = 1  e_8 = 31.8333012
l = 1  e_9 = 87.7308711
l = 1  e_10 = 248.569396
l = 2  e_0 = 0.0471441247
l = 2  e_1 = 0.160700007
l = 2  e_2 = 0.446545918
l = 2  e_3 = 1.14000165
l = 2  e_4 = 2.89040844
l = 2  e_5 = 7.47982432
l = 2  e_6 = 19.7252135
l = 2  e_7 = 56.7940945
l = 2  e_8 = 177.179743
l = 3  e_0 = 0.129967995
l = 3  e_1 = 0.403043181
l = 3  e_2 = 1.06631328
l = 3  e_3 = 2.57592505
l = 3  e_4 = 6.17125623
l = 3  e_5 = 19.1129493
l = 3  e_6 = 88.031104
l = 4  e_0 = 0.440928608
l = 4  e_1 = 1.18182907
l = 4  e_2 = 2.79843885
l = 4  e_3 = 6.76380146
l = 4  e_4 = 23.2935736
l = 5  e_0 = 1.04955231
l = 5  e_1 = 2.64245869
l = 5  e_2 = 6.10754831
l = 0  occ = 2 + 0
l = 1  occ = 0 + 0.3333
l = 2  occ = 0 + 0
l = 3  occ = 0 + 0
E1 = -32.002951741911815  E_coul = 7.618288633440305
cycle= 9 E= -24.3846631084715  delta_E= -1.53e-11  |g|=    0  |ddm|= 6.27e-06
    CPU time for cycle= 9      1.06 sec, wall time      0.27 sec
diis-norm(errvec)=1.12388e-07
diis-c [-1.09078445e-16  1.22613977e+00 -5.14291017e-07  9.34136613e-06
 -6.71800060e-05  5.62099490e-04 -7.59230038e-03  4.73362598e-02
 -2.66387473e-01]
l = 0  e_0 = -7.80670247
l = 0  e_1 = -0.557246289
l = 0  e_2 = 0.013520852
l = 0  e_3 = 0.0815681243
l = 0  e_4 = 0.323220813
l = 0  e_5 = 1.12853955
l = 0  e_6 = 3.76032996
l = 0  e_7 = 11.3779789
l = 0  e_8 = 31.1179145
l = 0  e_9 = 80.1512147
l = 0  e_10 = 204.509631
l = 0  e_11 = 710.341726
l = 1  e_0 = -0.0384773958
l = 1  e_1 = 0.0121613876
l = 1  e_2 = 0.0584398089
l = 1  e_3 = 0.213490531
l = 1  e_4 = 0.636887111
l = 1  e_5 = 1.71936624
l = 1  e_6 = 4.53580334
l = 1  e_7 = 11.8992505
l = 1  e_8 = 31.8333013
l = 1  e_9 = 87.7308713
l = 1  e_10 = 248.569396
l = 2  e_0 = 0.0471441468
l = 2  e_1 = 0.160700049
l = 2  e_2 = 0.446545977
l = 2  e_3 = 1.14000172
l = 2  e_4 = 2.89040853
l = 2  e_5 = 7.47982442
l = 2  e_6 = 19.7252136
l = 2  e_7 = 56.7940946
l = 2  e_8 = 177.179743
l = 3  e_0 = 0.129968029
l = 3  e_1 = 0.403043232
l = 3  e_2 = 1.06631334
l = 3  e_3 = 2.57592512
l = 3  e_4 = 6.17125632
l = 3  e_5 = 19.1129494
l = 3  e_6 = 88.0311042
l = 4  e_0 = 0.440928657
l = 4  e_1 = 1.18182912
l = 4  e_2 = 2.79843892
l = 4  e_3 = 6.76380155
l = 4  e_4 = 23.2935737
l = 5  e_0 = 1.04955236
l = 5  e_1 = 2.64245875
l = 5  e_2 = 6.10754839
l = 0  occ = 2 + 0
l = 1  occ = 0 + 0.3333
l = 2  occ = 0 + 0
l = 3  occ = 0 + 0
E1 = -32.00295130934386  E_coul = 7.618288200872382
cycle= 10 E= -24.3846631084715  delta_E= 3.55e-14  |g|=    0  |ddm|= 1.3e-07
    CPU time for cycle= 10      1.06 sec, wall time      0.27 sec
diis-norm(errvec)=1.37288e-09
Linear dependence found in DIIS error vectors.
diis-c [-7.22641531e-17  4.79460640e-01  6.10451236e-01  1.85216042e-06
 -1.57941322e-05  1.60908528e-04 -2.54120167e-03  1.70578955e-02
 -1.04575536e-01]
l = 0  e_0 = -7.80670247
l = 0  e_1 = -0.557246288
l = 0  e_2 = 0.0135208519
l = 0  e_3 = 0.0815681243
l = 0  e_4 = 0.323220813
l = 0  e_5 = 1.12853955
l = 0  e_6 = 3.76032996
l = 0  e_7 = 11.3779789
l = 0  e_8 = 31.1179145
l = 0  e_9 = 80.1512147
l = 0  e_10 = 204.509631
l = 0  e_11 = 710.341726
l = 1  e_0 = -0.0384773956
l = 1  e_1 = 0.0121613876
l = 1  e_2 = 0.0584398091
l = 1  e_3 = 0.213490531
l = 1  e_4 = 0.636887112
l = 1  e_5 = 1.71936624
l = 1  e_6 = 4.53580334
l = 1  e_7 = 11.8992505
l = 1  e_8 = 31.8333013
l = 1  e_9 = 87.7308713
l = 1  e_10 = 248.569396
l = 2  e_0 = 0.0471441467
l = 2  e_1 = 0.160700049
l = 2  e_2 = 0.446545977
l = 2  e_3 = 1.14000172
l = 2  e_4 = 2.89040853
l = 2  e_5 = 7.47982442
l = 2  e_6 = 19.7252136
l = 2  e_7 = 56.7940946
l = 2  e_8 = 177.179743
l = 3  e_0 = 0.129968029
l = 3  e_1 = 0.403043232
l = 3  e_2 = 1.06631334
l = 3  e_3 = 2.57592512
l = 3  e_4 = 6.17125632
l = 3  e_5 = 19.1129494
l = 3  e_6 = 88.0311042
l = 4  e_0 = 0.440928657
l = 4  e_1 = 1.18182912
l = 4  e_2 = 2.79843892
l = 4  e_3 = 6.76380155
l = 4  e_4 = 23.2935737
l = 5  e_0 = 1.04955236
l = 5  e_1 = 2.64245875
l = 5  e_2 = 6.10754839
l = 0  occ = 2 + 0
l = 1  occ = 0 + 0.3333
l = 2  occ = 0 + 0
l = 3  occ = 0 + 0
E1 = -32.00295130107169  E_coul = 7.618288192600189
cycle= 11 E= -24.3846631084715  delta_E= -2.49e-14  |g|=    0  |ddm|= 6.21e-09
    CPU time for cycle= 11      1.04 sec, wall time      0.26 sec
diis-norm(errvec)=2.01364e-09
Linear dependence found in DIIS error vectors.
diis-c [-2.97421899e-17  3.01284819e-01  3.73819934e-01  3.74693313e-01
 -3.10698648e-06  5.27452308e-05 -1.10714534e-03  8.86233885e-03
 -5.76028989e-02]
l = 0  e_0 = -7.80670247
l = 0  e_1 = -0.557246289
l = 0  e_2 = 0.013520852
l = 0  e_3 = 0.0815681243
l = 0  e_4 = 0.323220812
l = 0  e_5 = 1.12853955
l = 0  e_6 = 3.76032996
l = 0  e_7 = 11.3779789
l = 0  e_8 = 31.1179145
l = 0  e_9 = 80.1512147
l = 0  e_10 = 204.509631
l = 0  e_11 = 710.341726
l = 1  e_0 = -0.0384773962
l = 1  e_1 = 0.0121613876
l = 1  e_2 = 0.0584398092
l = 1  e_3 = 0.213490531
l = 1  e_4 = 0.636887111
l = 1  e_5 = 1.71936624
l = 1  e_6 = 4.53580334
l = 1  e_7 = 11.8992505
l = 1  e_8 = 31.8333013
l = 1  e_9 = 87.7308713
l = 1  e_10 = 248.569396
l = 2  e_0 = 0.0471441468
l = 2  e_1 = 0.160700049
l = 2  e_2 = 0.446545977
l = 2  e_3 = 1.14000172
l = 2  e_4 = 2.89040853
l = 2  e_5 = 7.47982442
l = 2  e_6 = 19.7252136
l = 2  e_7 = 56.7940946
l = 2  e_8 = 177.179743
l = 3  e_0 = 0.129968029
l = 3  e_1 = 0.403043232
l = 3  e_2 = 1.06631334
l = 3  e_3 = 2.57592512
l = 3  e_4 = 6.17125632
l = 3  e_5 = 19.1129494
l = 3  e_6 = 88.0311042
l = 4  e_0 = 0.440928657
l = 4  e_1 = 1.18182912
l = 4  e_2 = 2.79843892
l = 4  e_3 = 6.76380155
l = 4  e_4 = 23.2935737
l = 5  e_0 = 1.04955236
l = 5  e_1 = 2.64245875
l = 5  e_2 = 6.10754839
l = 0  occ = 2 + 0
l = 1  occ = 0 + 0.3333
l = 2  occ = 0 + 0
l = 3  occ = 0 + 0
E1 = -32.00295130458931  E_coul = 7.618288196117869
cycle= 12 E= -24.3846631084714  delta_E= 6.04e-14  |g|=    0  |ddm|= 3.28e-09
    CPU time for cycle= 12      1.04 sec, wall time      0.26 sec
diis-norm(errvec)=5.50223e-10
Linear dependence found in DIIS error vectors.
diis-c [ 6.73278146e-17  2.23483203e-01  2.69571838e-01  2.70330800e-01
  2.70005719e-01  1.54436052e-05 -5.75253657e-04  5.15761469e-03
 -3.79893652e-02]
l = 0  e_0 = -7.80670247
l = 0  e_1 = -0.557246287
l = 0  e_2 = 0.0135208522
l = 0  e_3 = 0.0815681246
l = 0  e_4 = 0.323220813
l = 0  e_5 = 1.12853955
l = 0  e_6 = 3.76032996
l = 0  e_7 = 11.3779789
l = 0  e_8 = 31.1179145
l = 0  e_9 = 80.1512147
l = 0  e_10 = 204.509631
l = 0  e_11 = 710.341726
l = 1  e_0 = -0.0384773951
l = 1  e_1 = 0.0121613877
l = 1  e_2 = 0.0584398094
l = 1  e_3 = 0.213490532
l = 1  e_4 = 0.636887112
l = 1  e_5 = 1.71936624
l = 1  e_6 = 4.53580335
l = 1  e_7 = 11.8992505
l = 1  e_8 = 31.8333013
l = 1  e_9 = 87.7308713
l = 1  e_10 = 248.569396
l = 2  e_0 = 0.0471441469
l = 2  e_1 = 0.160700049
l = 2  e_2 = 0.446545978
l = 2  e_3 = 1.14000172
l = 2  e_4 = 2.89040853
l = 2  e_5 = 7.47982442
l = 2  e_6 = 19.7252136
l = 2  e_7 = 56.7940946
l = 2  e_8 = 177.179743
l = 3  e_0 = 0.129968029
l = 3  e_1 = 0.403043232
l = 3  e_2 = 1.06631334
l = 3  e_3 = 2.57592512
l = 3  e_4 = 6.17125632
l = 3  e_5 = 19.1129494
l = 3  e_6 = 88.0311042
l = 4  e_0 = 0.440928658
l = 4  e_1 = 1.18182912
l = 4  e_2 = 2.79843892
l = 4  e_3 = 6.76380155
l = 4  e_4 = 23.2935737
l = 5  e_0 = 1.04955236
l = 5  e_1 = 2.64245875
l = 5  e_2 = 6.10754839
l = 0  occ = 2 + 0
l = 1  occ = 0 + 0.3333
l = 2  occ = 0 + 0
l = 3  occ = 0 + 0
E1 = -32.00295129848735  E_coul = 7.618288190015869
cycle= 13 E= -24.3846631084715  delta_E= -4.62e-14  |g|=    0  |ddm|= 5.33e-09
    CPU time for cycle= 13      1.04 sec, wall time      0.26 sec
diis-norm(errvec)=2.47716e-09
Linear dependence found in DIIS error vectors.
diis-c [-8.02221576e-16  1.79234818e-01  2.10701622e-01  2.11186593e-01
  2.11097315e-01  2.11107201e-01 -1.85976268e-04  3.01709300e-03
 -2.61586656e-02]
l = 0  e_0 = -7.80670247
l = 0  e_1 = -0.55724629
l = 0  e_2 = 0.0135208519
l = 0  e_3 = 0.081568124
l = 0  e_4 = 0.323220812
l = 0  e_5 = 1.12853955
l = 0  e_6 = 3.76032996
l = 0  e_7 = 11.3779789
l = 0  e_8 = 31.1179145
l = 0  e_9 = 80.1512147
l = 0  e_10 = 204.509631
l = 0  e_11 = 710.341726
l = 1  e_0 = -0.0384773969
l = 1  e_1 = 0.0121613876
l = 1  e_2 = 0.058439809
l = 1  e_3 = 0.213490531
l = 1  e_4 = 0.63688711
l = 1  e_5 = 1.71936623
l = 1  e_6 = 4.53580334
l = 1  e_7 = 11.8992505
l = 1  e_8 = 31.8333013
l = 1  e_9 = 87.7308713
l = 1  e_10 = 248.569396
l = 2  e_0 = 0.0471441467
l = 2  e_1 = 0.160700049
l = 2  e_2 = 0.446545976
l = 2  e_3 = 1.14000172
l = 2  e_4 = 2.89040853
l = 2  e_5 = 7.47982442
l = 2  e_6 = 19.7252136
l = 2  e_7 = 56.7940946
l = 2  e_8 = 177.179743
l = 3  e_0 = 0.129968029
l = 3  e_1 = 0.403043231
l = 3  e_2 = 1.06631334
l = 3  e_3 = 2.57592512
l = 3  e_4 = 6.17125632
l = 3  e_5 = 19.1129494
l = 3  e_6 = 88.0311042
l = 4  e_0 = 0.440928657
l = 4  e_1 = 1.18182912
l = 4  e_2 = 2.79843892
l = 4  e_3 = 6.76380155
l = 4  e_4 = 23.2935737
l = 5  e_0 = 1.04955236
l = 5  e_1 = 2.64245875
l = 5  e_2 = 6.10754839
l = 0  occ = 2 + 0
l = 1  occ = 0 + 0.3333
l = 2  occ = 0 + 0
l = 3  occ = 0 + 0
E1 = -32.00295130609102  E_coul = 7.618288197619568
cycle= 14 E= -24.3846631084715  delta_E= 3.55e-14  |g|=    0  |ddm|= 3.46e-09
    CPU time for cycle= 14      1.03 sec, wall time      0.26 sec
diis-norm(errvec)=1.02126e-09
Linear dependence found in DIIS error vectors.
diis-c [-1.10687945e-16  1.49534926e-01  1.73492614e-01  1.73880227e-01
  1.73769666e-01  1.73783499e-01  1.73788560e-01  1.96648373e-03
 -2.02159757e-02]
l = 0  e_0 = -7.80670247
l = 0  e_1 = -0.557246291
l = 0  e_2 = 0.0135208517
l = 0  e_3 = 0.0815681237
l = 0  e_4 = 0.323220811
l = 0  e_5 = 1.12853955
l = 0  e_6 = 3.76032996
l = 0  e_7 = 11.3779789
l = 0  e_8 = 31.1179145
l = 0  e_9 = 80.1512147
l = 0  e_10 = 204.509631
l = 0  e_11 = 710.341726
l = 1  e_0 = -0.0384773977
l = 1  e_1 = 0.0121613876
l = 1  e_2 = 0.0584398088
l = 1  e_3 = 0.21349053
l = 1  e_4 = 0.636887109
l = 1  e_5 = 1.71936623
l = 1  e_6 = 4.53580334
l = 1  e_7 = 11.8992505
l = 1  e_8 = 31.8333013
l = 1  e_9 = 87.7308713
l = 1  e_10 = 248.569396
l = 2  e_0 = 0.0471441467
l = 2  e_1 = 0.160700048
l = 2  e_2 = 0.446545975
l = 2  e_3 = 1.14000172
l = 2  e_4 = 2.89040852
l = 2  e_5 = 7.47982442
l = 2  e_6 = 19.7252136
l = 2  e_7 = 56.7940946
l = 2  e_8 = 177.179743
l = 3  e_0 = 0.129968029
l = 3  e_1 = 0.403043231
l = 3  e_2 = 1.06631334
l = 3  e_3 = 2.57592512
l = 3  e_4 = 6.17125632
l = 3  e_5 = 19.1129494
l = 3  e_6 = 88.0311042
l = 4  e_0 = 0.440928656
l = 4  e_1 = 1.18182912
l = 4  e_2 = 2.79843892
l = 4  e_3 = 6.76380155
l = 4  e_4 = 23.2935737
l = 5  e_0 = 1.04955236
l = 5  e_1 = 2.64245875
l = 5  e_2 = 6.10754839
l = 0  occ = 2 + 0
l = 1  occ = 0 + 0.3333
l = 2  occ = 0 + 0
l = 3  occ = 0 + 0
E1 = -32.00295130983119  E_coul = 7.618288201359723
cycle= 15 E= -24.3846631084715  delta_E= -1.42e-14  |g|=    0  |ddm|= 3.65e-09
    CPU time for cycle= 15      1.04 sec, wall time      0.26 sec
diis-norm(errvec)=2.56378e-09
Linear dependence found in DIIS error vectors.
diis-c [-3.68070038e-17  1.40552054e-01  1.43725303e-01  1.43809670e-01
  1.43742191e-01  1.43827224e-01  1.43728261e-01  1.43673004e-01
 -3.05770630e-03]
l = 0  e_0 = -7.80670246
l = 0  e_1 = -0.557246285
l = 0  e_2 = 0.0135208525
l = 0  e_3 = 0.0815681251
l = 0  e_4 = 0.323220814
l = 0  e_5 = 1.12853955
l = 0  e_6 = 3.76032996
l = 0  e_7 = 11.3779789
l = 0  e_8 = 31.1179145
l = 0  e_9 = 80.1512147
l = 0  e_10 = 204.509631
l = 0  e_11 = 710.341726
l = 1  e_0 = -0.038477394
l = 1  e_1 = 0.0121613877
l = 1  e_2 = 0.0584398097
l = 1  e_3 = 0.213490533
l = 1  e_4 = 0.636887114
l = 1  e_5 = 1.71936624
l = 1  e_6 = 4.53580335
l = 1  e_7 = 11.8992505
l = 1  e_8 = 31.8333013
l = 1  e_9 = 87.7308713
l = 1  e_10 = 248.569396
l = 2  e_0 = 0.047144147
l = 2  e_1 = 0.16070005
l = 2  e_2 = 0.446545979
l = 2  e_3 = 1.14000173
l = 2  e_4 = 2.89040853
l = 2  e_5 = 7.47982443
l = 2  e_6 = 19.7252136
l = 2  e_7 = 56.7940946
l = 2  e_8 = 177.179743
l = 3  e_0 = 0.129968029
l = 3  e_1 = 0.403043233
l = 3  e_2 = 1.06631334
l = 3  e_3 = 2.57592512
l = 3  e_4 = 6.17125632
l = 3  e_5 = 19.1129494
l = 3  e_6 = 88.0311042
l = 4  e_0 = 0.440928658
l = 4  e_1 = 1.18182912
l = 4  e_2 = 2.79843893
l = 4  e_3 = 6.76380156
l = 4  e_4 = 23.2935737
l = 5  e_0 = 1.04955237
l = 5  e_1 = 2.64245876
l = 5  e_2 = 6.10754839
l = 0  occ = 2 + 0
l = 1  occ = 0 + 0.3333
l = 2  occ = 0 + 0
l = 3  occ = 0 + 0
E1 = -32.00295129492208  E_coul = 7.618288186450634
cycle= 16 E= -24.3846631084714  delta_E= 2.13e-14  |g|=    0  |ddm|= 1.25e-08
    CPU time for cycle= 16      1.05 sec, wall time      0.26 sec
diis-norm(errvec)=4.74002e-09
Linear dependence found in DIIS error vectors.
diis-c [1.90921713e-16 7.36666944e-03 1.40139484e-01 1.43339832e-01
 1.40975255e-01 1.43759050e-01 1.40474631e-01 1.38684283e-01
 1.45260796e-01]
l = 0  e_0 = -7.80670247
l = 0  e_1 = -0.557246288
l = 0  e_2 = 0.013520852
l = 0  e_3 = 0.0815681243
l = 0  e_4 = 0.323220813
l = 0  e_5 = 1.12853955
l = 0  e_6 = 3.76032996
l = 0  e_7 = 11.3779789
l = 0  e_8 = 31.1179145
l = 0  e_9 = 80.1512147
l = 0  e_10 = 204.509631
l = 0  e_11 = 710.341726
l = 1  e_0 = -0.038477396
l = 1  e_1 = 0.0121613876
l = 1  e_2 = 0.0584398092
l = 1  e_3 = 0.213490531
l = 1  e_4 = 0.636887111
l = 1  e_5 = 1.71936624
l = 1  e_6 = 4.53580334
l = 1  e_7 = 11.8992505
l = 1  e_8 = 31.8333013
l = 1  e_9 = 87.7308713
l = 1  e_10 = 248.569396
l = 2  e_0 = 0.0471441468
l = 2  e_1 = 0.160700049
l = 2  e_2 = 0.446545977
l = 2  e_3 = 1.14000172
l = 2  e_4 = 2.89040853
l = 2  e_5 = 7.47982442
l = 2  e_6 = 19.7252136
l = 2  e_7 = 56.7940946
l = 2  e_8 = 177.179743
l = 3  e_0 = 0.129968029
l = 3  e_1 = 0.403043232
l = 3  e_2 = 1.06631334
l = 3  e_3 = 2.57592512
l = 3  e_4 = 6.17125632
l = 3  e_5 = 19.1129494
l = 3  e_6 = 88.0311042
l = 4  e_0 = 0.440928657
l = 4  e_1 = 1.18182912
l = 4  e_2 = 2.79843892
l = 4  e_3 = 6.76380155
l = 4  e_4 = 23.2935737
l = 5  e_0 = 1.04955236
l = 5  e_1 = 2.64245875
l = 5  e_2 = 6.10754839
l = 0  occ = 2 + 0
l = 1  occ = 0 + 0.3333
l = 2  occ = 0 + 0
l = 3  occ = 0 + 0
E1 = -32.00295130273909  E_coul = 7.618288194267608
cycle= 17 E= -24.3846631084715  delta_E= -4.26e-14  |g|=    0  |ddm|= 1.03e-08
    CPU time for cycle= 17      1.04 sec, wall time      0.26 sec
diis-norm(errvec)=6.30221e-10
Linear dependence found in DIIS error vectors.
diis-c [-2.89052492e-16  1.25000000e-01  1.25000000e-01  1.25000000e-01
  1.25000000e-01  1.25000000e-01  1.25000000e-01  1.25000000e-01
  1.25000000e-01]
l = 0  e_0 = -7.80670247
l = 0  e_1 = -0.557246289
l = 0  e_2 = 0.013520852
l = 0  e_3 = 0.0815681242
l = 0  e_4 = 0.323220812
l = 0  e_5 = 1.12853955
l = 0  e_6 = 3.76032996
l = 0  e_7 = 11.3779789
l = 0  e_8 = 31.1179145
l = 0  e_9 = 80.1512147
l = 0  e_10 = 204.509631
l = 0  e_11 = 710.341726
l = 1  e_0 = -0.0384773963
l = 1  e_1 = 0.0121613876
l = 1  e_2 = 0.0584398092
l = 1  e_3 = 0.213490531
l = 1  e_4 = 0.636887111
l = 1  e_5 = 1.71936624
l = 1  e_6 = 4.53580334
l = 1  e_7 = 11.8992505
l = 1  e_8 = 31.8333013
l = 1  e_9 = 87.7308713
l = 1  e_10 = 248.569396
l = 2  e_0 = 0.0471441468
l = 2  e_1 = 0.160700049
l = 2  e_2 = 0.446545977
l = 2  e_3 = 1.14000172
l = 2  e_4 = 2.89040853
l = 2  e_5 = 7.47982442
l = 2  e_6 = 19.7252136
l = 2  e_7 = 56.7940946
l = 2  e_8 = 177.179743
l = 3  e_0 = 0.129968029
l = 3  e_1 = 0.403043232
l = 3  e_2 = 1.06631334
l = 3  e_3 = 2.57592512
l = 3  e_4 = 6.17125632
l = 3  e_5 = 19.1129494
l = 3  e_6 = 88.0311042
l = 4  e_0 = 0.440928657
l = 4  e_1 = 1.18182912
l = 4  e_2 = 2.79843892
l = 4  e_3 = 6.76380155
l = 4  e_4 = 23.2935737
l = 5  e_0 = 1.04955236
l = 5  e_1 = 2.64245875
l = 5  e_2 = 6.10754839
l = 0  occ = 2 + 0
l = 1  occ = 0 + 0.3333
l = 2  occ = 0 + 0
l = 3  occ = 0 + 0
E1 = -32.002951304396035  E_coul = 7.618288195924598
cycle= 18 E= -24.3846631084714  delta_E= 4.97e-14  |g|=    0  |ddm|= 8.87e-10
    CPU time for cycle= 18      1.03 sec, wall time      0.26 sec
diis-norm(errvec)=1.5482e-10
Linear dependence found in DIIS error vectors.
diis-c [-2.89052492e-16  1.25000000e-01  1.25000000e-01  1.25000000e-01
  1.25000000e-01  1.25000000e-01  1.25000000e-01  1.25000000e-01
  1.25000000e-01]
l = 0  e_0 = -7.80670247
l = 0  e_1 = -0.557246289
l = 0  e_2 = 0.013520852
l = 0  e_3 = 0.0815681242
l = 0  e_4 = 0.323220812
l = 0  e_5 = 1.12853955
l = 0  e_6 = 3.76032996
l = 0  e_7 = 11.3779789
l = 0  e_8 = 31.1179145
l = 0  e_9 = 80.1512147
l = 0  e_10 = 204.509631
l = 0  e_11 = 710.341726
l = 1  e_0 = -0.0384773964
l = 1  e_1 = 0.0121613876
l = 1  e_2 = 0.0584398092
l = 1  e_3 = 0.213490531
l = 1  e_4 = 0.636887111
l = 1  e_5 = 1.71936624
l = 1  e_6 = 4.53580334
l = 1  e_7 = 11.8992505
l = 1  e_8 = 31.8333013
l = 1  e_9 = 87.7308713
l = 1  e_10 = 248.569396
l = 2  e_0 = 0.0471441468
l = 2  e_1 = 0.160700049
l = 2  e_2 = 0.446545977
l = 2  e_3 = 1.14000172
l = 2  e_4 = 2.89040853
l = 2  e_5 = 7.47982442
l = 2  e_6 = 19.7252136
l = 2  e_7 = 56.7940946
l = 2  e_8 = 177.179743
l = 3  e_0 = 0.129968029
l = 3  e_1 = 0.403043232
l = 3  e_2 = 1.06631334
l = 3  e_3 = 2.57592512
l = 3  e_4 = 6.17125632
l = 3  e_5 = 19.1129494
l = 3  e_6 = 88.0311042
l = 4  e_0 = 0.440928657
l = 4  e_1 = 1.18182912
l = 4  e_2 = 2.79843892
l = 4  e_3 = 6.76380155
l = 4  e_4 = 23.2935737
l = 5  e_0 = 1.04955236
l = 5  e_1 = 2.64245875
l = 5  e_2 = 6.10754839
l = 0  occ = 2 + 0
l = 1  occ = 0 + 0.3333
l = 2  occ = 0 + 0
l = 3  occ = 0 + 0
E1 = -32.002951304705675  E_coul = 7.618288196234204
cycle= 19 E= -24.3846631084715  delta_E= -3.55e-14  |g|=    0  |ddm|= 1.86e-10
    CPU time for cycle= 19      1.03 sec, wall time      0.26 sec
diis-norm(errvec)=1.72088e-10
Linear dependence found in DIIS error vectors.
diis-c [-2.89052492e-16  1.25000000e-01  1.25000000e-01  1.25000000e-01
  1.25000000e-01  1.25000000e-01  1.25000000e-01  1.25000000e-01
  1.25000000e-01]
l = 0  e_0 = -7.80670247
l = 0  e_1 = -0.557246289
l = 0  e_2 = 0.013520852
l = 0  e_3 = 0.0815681242
l = 0  e_4 = 0.323220812
l = 0  e_5 = 1.12853955
l = 0  e_6 = 3.76032996
l = 0  e_7 = 11.3779789
l = 0  e_8 = 31.1179145
l = 0  e_9 = 80.1512147
l = 0  e_10 = 204.509631
l = 0  e_11 = 710.341726
l = 1  e_0 = -0.0384773963
l = 1  e_1 = 0.0121613876
l = 1  e_2 = 0.0584398092
l = 1  e_3 = 0.213490531
l = 1  e_4 = 0.636887111
l = 1  e_5 = 1.71936624
l = 1  e_6 = 4.53580334
l = 1  e_7 = 11.8992505
l = 1  e_8 = 31.8333013
l = 1  e_9 = 87.7308713
l = 1  e_10 = 248.569396
l = 2  e_0 = 0.0471441468
l = 2  e_1 = 0.160700049
l = 2  e_2 = 0.446545977
l = 2  e_3 = 1.14000172
l = 2  e_4 = 2.89040853
l = 2  e_5 = 7.47982442
l = 2  e_6 = 19.7252136
l = 2  e_7 = 56.7940946
l = 2  e_8 = 177.179743
l = 3  e_0 = 0.129968029
l = 3  e_1 = 0.403043232
l = 3  e_2 = 1.06631334
l = 3  e_3 = 2.57592512
l = 3  e_4 = 6.17125632
l = 3  e_5 = 19.1129494
l = 3  e_6 = 88.0311042
l = 4  e_0 = 0.440928657
l = 4  e_1 = 1.18182912
l = 4  e_2 = 2.79843892
l = 4  e_3 = 6.76380155
l = 4  e_4 = 23.2935737
l = 5  e_0 = 1.04955236
l = 5  e_1 = 2.64245875
l = 5  e_2 = 6.10754839
l = 0  occ = 2 + 0
l = 1  occ = 0 + 0.3333
l = 2  occ = 0 + 0
l = 3  occ = 0 + 0
E1 = -32.002951304471075  E_coul = 7.618288195999606
cycle= 20 E= -24.3846631084715  delta_E=    0  |g|=    0  |ddm|= 1.24e-10
    CPU time for cycle= 20      1.04 sec, wall time      0.26 sec
diis-norm(errvec)=1.32585e-10
Linear dependence found in DIIS error vectors.
diis-c [-2.89052492e-16  1.25000000e-01  1.25000000e-01  1.25000000e-01
  1.25000000e-01  1.25000000e-01  1.25000000e-01  1.25000000e-01
  1.25000000e-01]
l = 0  e_0 = -7.80670247
l = 0  e_1 = -0.557246289
l = 0  e_2 = 0.013520852
l = 0  e_3 = 0.0815681242
l = 0  e_4 = 0.323220812
l = 0  e_5 = 1.12853955
l = 0  e_6 = 3.76032996
l = 0  e_7 = 11.3779789
l = 0  e_8 = 31.1179145
l = 0  e_9 = 80.1512147
l = 0  e_10 = 204.509631
l = 0  e_11 = 710.341726
l = 1  e_0 = -0.0384773963
l = 1  e_1 = 0.0121613876
l = 1  e_2 = 0.0584398092
l = 1  e_3 = 0.213490531
l = 1  e_4 = 0.636887111
l = 1  e_5 = 1.71936624
l = 1  e_6 = 4.53580334
l = 1  e_7 = 11.8992505
l = 1  e_8 = 31.8333013
l = 1  e_9 = 87.7308713
l = 1  e_10 = 248.569396
l = 2  e_0 = 0.0471441468
l = 2  e_1 = 0.160700049
l = 2  e_2 = 0.446545977
l = 2  e_3 = 1.14000172
l = 2  e_4 = 2.89040853
l = 2  e_5 = 7.47982442
l = 2  e_6 = 19.7252136
l = 2  e_7 = 56.7940946
l = 2  e_8 = 177.179743
l = 3  e_0 = 0.129968029
l = 3  e_1 = 0.403043232
l = 3  e_2 = 1.06631334
l = 3  e_3 = 2.57592512
l = 3  e_4 = 6.17125632
l = 3  e_5 = 19.1129494
l = 3  e_6 = 88.0311042
l = 4  e_0 = 0.440928657
l = 4  e_1 = 1.18182912
l = 4  e_2 = 2.79843892
l = 4  e_3 = 6.76380155
l = 4  e_4 = 23.2935737
l = 5  e_0 = 1.04955236
l = 5  e_1 = 2.64245875
l = 5  e_2 = 6.10754839
l = 0  occ = 2 + 0
l = 1  occ = 0 + 0.3333
l = 2  occ = 0 + 0
l = 3  occ = 0 + 0
E1 = -32.00295130446807  E_coul = 7.618288195996562
cycle= 21 E= -24.3846631084715  delta_E= -3.55e-14  |g|=    0  |ddm|= 1.8e-11
    CPU time for cycle= 21      1.05 sec, wall time      0.26 sec
l = 0  e_0 = -7.80670247
l = 0  e_1 = -0.557246289
l = 0  e_2 = 0.013520852
l = 0  e_3 = 0.0815681242
l = 0  e_4 = 0.323220812
l = 0  e_5 = 1.12853955
l = 0  e_6 = 3.76032996
l = 0  e_7 = 11.3779789
l = 0  e_8 = 31.1179145
l = 0  e_9 = 80.1512147
l = 0  e_10 = 204.509631
l = 0  e_11 = 710.341726
l = 1  e_0 = -0.0384773962
l = 1  e_1 = 0.0121613876
l = 1  e_2 = 0.0584398092
l = 1  e_3 = 0.213490531
l = 1  e_4 = 0.636887111
l = 1  e_5 = 1.71936624
l = 1  e_6 = 4.53580334
l = 1  e_7 = 11.8992505
l = 1  e_8 = 31.8333013
l = 1  e_9 = 87.7308713
l = 1  e_10 = 248.569396
l = 2  e_0 = 0.0471441468
l = 2  e_1 = 0.160700049
l = 2  e_2 = 0.446545977
l = 2  e_3 = 1.14000172
l = 2  e_4 = 2.89040853
l = 2  e_5 = 7.47982442
l = 2  e_6 = 19.7252136
l = 2  e_7 = 56.7940946
l = 2  e_8 = 177.179743
l = 3  e_0 = 0.129968029
l = 3  e_1 = 0.403043232
l = 3  e_2 = 1.06631334
l = 3  e_3 = 2.57592512
l = 3  e_4 = 6.17125632
l = 3  e_5 = 19.1129494
l = 3  e_6 = 88.0311042
l = 4  e_0 = 0.440928657
l = 4  e_1 = 1.18182912
l = 4  e_2 = 2.79843892
l = 4  e_3 = 6.76380155
l = 4  e_4 = 23.2935737
l = 5  e_0 = 1.04955236
l = 5  e_1 = 2.64245875
l = 5  e_2 = 6.10754839
l = 0  occ = 2 + 0
l = 1  occ = 0 + 0.3333
l = 2  occ = 0 + 0
l = 3  occ = 0 + 0
E1 = -32.00295130374999  E_coul = 7.618288195278517
Extra cycle  E= -24.3846631084715  delta_E= 3.55e-14  |g|=    0  |ddm|= 1.8e-11
    CPU time for scf_cycle     34.70 sec, wall time      8.95 sec
    CPU time for SCF     34.70 sec, wall time      8.95 sec
Atomic HF for atom  B  converged. SCF energy = -24.3846631084715

Atom B, E = -24.3846631085
Nelec from initial guess = 4.999999999999989
E1 = -32.00295130374999  E_coul = 7.618288195278518
init E= -24.3846631084715
    CPU time for initialize scf     46.30 sec, wall time     12.06 sec
HOMO (Ag) = -0.557246288914336  LUMO (B3u) = -0.038477396291746
irrep_nelec = [4, 0, 0, 0, 0, 0, 0, 0]
Ag nocc = 2  HOMO = -0.557246288914336  LUMO = 0.0135208519832265
   mo_energy = [-7.80670247e+00 -5.57246289e-01  1.35208520e-02  4.71441468e-02
  4.71441468e-02  8.15681242e-02  1.60700049e-01  1.60700049e-01
  3.23220812e-01  4.40928657e-01  4.40928657e-01  4.40928657e-01
  4.46545977e-01  4.46545977e-01  1.12853955e+00  1.14000172e+00
  1.14000172e+00  1.18182912e+00  1.18182912e+00  1.18182912e+00
  2.79843892e+00  2.79843892e+00  2.79843892e+00  2.89040853e+00
  2.89040853e+00  3.76032996e+00  6.76380155e+00  6.76380155e+00
  6.76380155e+00  7.47982442e+00  7.47982442e+00  1.13779789e+01
  1.97252136e+01  1.97252136e+01  2.32935737e+01  2.32935737e+01
  2.32935737e+01  3.11179145e+01  5.67940946e+01  5.67940946e+01
  8.01512147e+01  1.77179743e+02  1.77179743e+02  2.04509631e+02
  7.10341726e+02]
B1g nocc = 0
   mo_energy = [4.71441468e-02 1.60700049e-01 4.40928657e-01 4.40928657e-01
 4.46545977e-01 1.14000172e+00 1.18182912e+00 1.18182912e+00
 2.79843892e+00 2.79843892e+00 2.89040853e+00 6.76380155e+00
 6.76380155e+00 7.47982442e+00 1.97252136e+01 2.32935737e+01
 2.32935737e+01 5.67940946e+01 1.77179743e+02]
B2g nocc = 0
   mo_energy = [4.71441468e-02 1.60700049e-01 4.40928657e-01 4.40928657e-01
 4.46545977e-01 1.14000172e+00 1.18182912e+00 1.18182912e+00
 2.79843892e+00 2.79843892e+00 2.89040853e+00 6.76380155e+00
 6.76380155e+00 7.47982442e+00 1.97252136e+01 2.32935737e+01
 2.32935737e+01 5.67940946e+01 1.77179743e+02]
B3g nocc = 0
   mo_energy = [4.71441468e-02 1.60700049e-01 4.40928657e-01 4.40928657e-01
 4.46545977e-01 1.14000172e+00 1.18182912e+00 1.18182912e+00
 2.79843892e+00 2.79843892e+00 2.89040853e+00 6.76380155e+00
 6.76380155e+00 7.47982442e+00 1.97252136e+01 2.32935737e+01
 2.32935737e+01 5.67940946e+01 1.77179743e+02]
Au nocc = 0
   mo_energy = [ 0.12996803  0.40304323  1.04955236  1.04955236  1.06631334  2.57592512
  2.64245875  2.64245875  6.10754839  6.10754839  6.17125632 19.11294937
 88.03110416]
B1u nocc = 0
   mo_energy = [-3.84773963e-02  1.21613876e-02  5.84398092e-02  1.29968029e-01
  1.29968029e-01  2.13490531e-01  4.03043232e-01  4.03043232e-01
  6.36887111e-01  1.04955236e+00  1.04955236e+00  1.04955236e+00
  1.06631334e+00  1.06631334e+00  1.71936624e+00  2.57592512e+00
  2.57592512e+00  2.64245875e+00  2.64245875e+00  2.64245875e+00
  4.53580334e+00  6.10754839e+00  6.10754839e+00  6.10754839e+00
  6.17125632e+00  6.17125632e+00  1.18992505e+01  1.91129494e+01
  1.91129494e+01  3.18333013e+01  8.77308713e+01  8.80311042e+01
  8.80311042e+01  2.48569396e+02]
B2u nocc = 0
   mo_energy = [-3.84773963e-02  1.21613876e-02  5.84398092e-02  1.29968029e-01
  1.29968029e-01  2.13490531e-01  4.03043232e-01  4.03043232e-01
  6.36887111e-01  1.04955236e+00  1.04955236e+00  1.04955236e+00
  1.06631334e+00  1.06631334e+00  1.71936624e+00  2.57592512e+00
  2.57592512e+00  2.64245875e+00  2.64245875e+00  2.64245875e+00
  4.53580334e+00  6.10754839e+00  6.10754839e+00  6.10754839e+00
  6.17125632e+00  6.17125632e+00  1.18992505e+01  1.91129494e+01
  1.91129494e+01  3.18333013e+01  8.77308713e+01  8.80311042e+01
  8.80311042e+01  2.48569396e+02]
B3u nocc = 0
   mo_energy = [-3.84773963e-02  1.21613876e-02  5.84398092e-02  1.29968029e-01
  1.29968029e-01  2.13490531e-01  4.03043232e-01  4.03043232e-01
  6.36887111e-01  1.04955236e+00  1.04955236e+00  1.04955236e+00
  1.06631334e+00  1.06631334e+00  1.71936624e+00  2.57592512e+00
  2.57592512e+00  2.64245875e+00  2.64245875e+00  2.64245875e+00
  4.53580334e+00  6.10754839e+00  6.10754839e+00  6.10754839e+00
  6.17125632e+00  6.17125632e+00  1.18992505e+01  1.91129494e+01
  1.91129494e+01  3.18333013e+01  8.77308713e+01  8.80311042e+01
  8.80311042e+01  2.48569396e+02]
E1 = -30.181586901158898  E_coul = 5.952620852726311
cycle= 1 E= -24.2289660484326  delta_E= 0.156  |g|= 0.118  |ddm|= 0.17
    CPU time for cycle= 1      1.07 sec, wall time      0.27 sec
diis-norm(errvec)=0.166475
diis-c [-0.02771388  1.        ]
HOMO (Ag) = -0.887743063052913  LUMO (B2u) = -0.298451170063803
irrep_nelec = [4, 0, 0, 0, 0, 0, 0, 0]
Ag nocc = 2  HOMO = -0.887743063052913  LUMO = -0.115491396052831
   mo_energy = [-8.25383824e+00 -8.87743063e-01 -1.15491396e-01 -5.55195882e-02
 -5.55195882e-02 -4.49849193e-02  7.51275612e-03  7.51275612e-03
  1.20932413e-01  2.20141814e-01  2.20141814e-01  2.70335243e-01
  2.70335243e-01  2.70335243e-01  8.32279441e-01  8.43329110e-01
  8.43329110e-01  9.42411456e-01  9.42411456e-01  9.42411456e-01
  2.48777468e+00  2.48777468e+00  2.48777468e+00  2.53171059e+00
  2.53171059e+00  3.38575415e+00  6.38647357e+00  6.38647357e+00
  6.38647357e+00  7.07421210e+00  7.07421210e+00  1.09596907e+01
  1.92917079e+01  1.92917079e+01  2.28607882e+01  2.28607882e+01
  2.28607882e+01  3.06788722e+01  5.63467298e+01  5.63467298e+01
  7.97032661e+01  1.76727665e+02  1.76727665e+02  2.04058074e+02
  7.09888943e+02]
B1g nocc = 0
   mo_energy = [-5.55195882e-02  7.51275612e-03  2.20141814e-01  2.70335243e-01
  2.70335243e-01  8.43329110e-01  9.42411456e-01  9.42411456e-01
  2.48777468e+00  2.48777468e+00  2.53171059e+00  6.38647357e+00
  6.38647357e+00  7.07421210e+00  1.92917079e+01  2.28607882e+01
  2.28607882e+01  5.63467298e+01  1.76727665e+02]
B2g nocc = 0
   mo_energy = [-5.55195882e-02  7.51275612e-03  2.20141814e-01  2.70335243e-01
  2.70335243e-01  8.43329110e-01  9.42411456e-01  9.42411456e-01
  2.48777468e+00  2.48777468e+00  2.53171059e+00  6.38647357e+00
  6.38647357e+00  7.07421210e+00  1.92917079e+01  2.28607882e+01
  2.28607882e+01  5.63467298e+01  1.76727665e+02]
B3g nocc = 0
   mo_energy = [-5.55195882e-02  7.51275612e-03  2.20141814e-01  2.70335243e-01
  2.70335243e-01  8.43329110e-01  9.42411456e-01  9.42411456e-01
  2.48777468e+00  2.48777468e+00  2.53171059e+00  6.38647357e+00
  6.38647357e+00  7.07421210e+00  1.92917079e+01  2.28607882e+01
  2.28607882e+01  5.63467298e+01  1.76727665e+02]
Au nocc = 0
   mo_energy = [1.02477205e-02 2.18876624e-01 8.06328078e-01 8.36806772e-01
 8.36806772e-01 2.24746576e+00 2.35878185e+00 2.35878185e+00
 5.75474086e+00 5.75474086e+00 5.78523432e+00 1.86803896e+01
 8.75803708e+01]
B1u nocc = 0
   mo_energy = [-2.98451170e-01 -7.99878195e-02 -4.00467909e-02  1.02477205e-02
  1.02477205e-02  3.45252585e-02  2.18876624e-01  2.18876624e-01
  3.76584568e-01  8.06328078e-01  8.06328078e-01  8.36806772e-01
  8.36806772e-01  8.36806772e-01  1.38758640e+00  2.24746576e+00
  2.24746576e+00  2.35878185e+00  2.35878185e+00  2.35878185e+00
  4.14885690e+00  5.75474086e+00  5.75474086e+00  5.75474086e+00
  5.78523432e+00  5.78523432e+00  1.14768832e+01  1.86803896e+01
  1.86803896e+01  3.13918896e+01  8.72813701e+01  8.75803708e+01
  8.75803708e+01  2.48117022e+02]
B2u nocc = 0
   mo_energy = [-2.98451170e-01 -7.99878195e-02 -4.00467909e-02  1.02477205e-02
  1.02477205e-02  3.45252585e-02  2.18876624e-01  2.18876624e-01
  3.76584568e-01  8.06328078e-01  8.06328078e-01  8.36806772e-01
  8.36806772e-01  8.36806772e-01  1.38758640e+00  2.24746576e+00
  2.24746576e+00  2.35878185e+00  2.35878185e+00  2.35878185e+00
  4.14885690e+00  5.75474086e+00  5.75474086e+00  5.75474086e+00
  5.78523432e+00  5.78523432e+00  1.14768832e+01  1.86803896e+01
  1.86803896e+01  3.13918896e+01  8.72813701e+01  8.75803708e+01
  8.75803708e+01  2.48117022e+02]
B3u nocc = 0
   mo_energy = [-2.98451170e-01 -7.99878195e-02 -4.00467909e-02  1.02477205e-02
  1.02477205e-02  3.45252585e-02  2.18876624e-01  2.18876624e-01
  3.76584568e-01  8.06328078e-01  8.06328078e-01  8.36806772e-01
  8.36806772e-01  8.36806772e-01  1.38758640e+00  2.24746576e+00
  2.24746576e+00  2.35878185e+00  2.35878185e+00  2.35878185e+00
  4.14885690e+00  5.75474086e+00  5.75474086e+00  5.75474086e+00
  5.78523432e+00  5.78523432e+00  1.14768832e+01  1.86803896e+01
  1.86803896e+01  3.13918896e+01  8.72813701e+01  8.75803708e+01
  8.75803708e+01  2.48117022e+02]
E1 = -30.324686810603147  E_coul = 6.087526594658924
cycle= 2 E= -24.2371602159442  delta_E= -0.00819  |g|= 0.0236  |ddm|= 0.291
    CPU time for cycle= 2      1.06 sec, wall time      0.27 sec
diis-norm(errvec)=0.0334308
diis-c [-2.37907745e-04 -2.17929161e-01  1.21792916e+00]
HOMO (Ag) = -0.874377978326435  LUMO (B3u) = -0.276382491829263
irrep_nelec = [4, 0, 0, 0, 0, 0, 0, 0]
Ag nocc = 2  HOMO = -0.874377978326435  LUMO = -0.114412009214272
   mo_energy = [-8.18611132e+00 -8.74377978e-01 -1.14412009e-01 -5.51920003e-02
 -5.51920003e-02 -4.43780506e-02  8.77698859e-03  8.77698859e-03
  1.23962669e-01  2.25870091e-01  2.25870091e-01  2.70637807e-01
  2.70637807e-01  2.70637807e-01  8.45280512e-01  8.57921480e-01
  8.57921480e-01  9.45639455e-01  9.45639455e-01  9.45639455e-01
  2.50128554e+00  2.50128554e+00  2.50128554e+00  2.56088160e+00
  2.56088160e+00  3.41917606e+00  6.41975555e+00  6.41975555e+00
  6.41975555e+00  7.12004228e+00  7.12004228e+00  1.10112479e+01
  1.93499291e+01  1.93499291e+01  2.29171905e+01  2.29171905e+01
  2.29171905e+01  3.07422931e+01  5.64151168e+01  5.64151168e+01
  7.97755662e+01  1.76806669e+02  1.76806669e+02  2.04138974e+02
  7.09978306e+02]
B1g nocc = 0
   mo_energy = [-5.51920003e-02  8.77698859e-03  2.25870091e-01  2.70637807e-01
  2.70637807e-01  8.57921480e-01  9.45639455e-01  9.45639455e-01
  2.50128554e+00  2.50128554e+00  2.56088160e+00  6.41975555e+00
  6.41975555e+00  7.12004228e+00  1.93499291e+01  2.29171905e+01
  2.29171905e+01  5.64151168e+01  1.76806669e+02]
B2g nocc = 0
   mo_energy = [-5.51920003e-02  8.77698859e-03  2.25870091e-01  2.70637807e-01
  2.70637807e-01  8.57921480e-01  9.45639455e-01  9.45639455e-01
  2.50128554e+00  2.50128554e+00  2.56088160e+00  6.41975555e+00
  6.41975555e+00  7.12004228e+00  1.93499291e+01  2.29171905e+01
  2.29171905e+01  5.64151168e+01  1.76806669e+02]
B3g nocc = 0
   mo_energy = [-5.51920003e-02  8.77698859e-03  2.25870091e-01  2.70637807e-01
  2.70637807e-01  8.57921480e-01  9.45639455e-01  9.45639455e-01
  2.50128554e+00  2.50128554e+00  2.56088160e+00  6.41975555e+00
  6.41975555e+00  7.12004228e+00  1.93499291e+01  2.29171905e+01
  2.29171905e+01  5.64151168e+01  1.76806669e+02]
Au nocc = 0
   mo_energy = [1.03143096e-02 2.19963536e-01 8.12916734e-01 8.37873927e-01
 8.37873927e-01 2.26651352e+00 2.36616613e+00 2.36616613e+00
 5.77879822e+00 5.77879822e+00 5.82259280e+00 1.87372502e+01
 8.76514737e+01]
B1u nocc = 0
   mo_energy = [-2.76382492e-01 -7.85898752e-02 -3.94798729e-02  1.03143096e-02
  1.03143096e-02  3.81461335e-02  2.19963536e-01  2.19963536e-01
  3.88281070e-01  8.12916734e-01  8.12916734e-01  8.37873927e-01
  8.37873927e-01  8.37873927e-01  1.41247571e+00  2.26651352e+00
  2.26651352e+00  2.36616613e+00  2.36616613e+00  2.36616613e+00
  4.18902502e+00  5.77879822e+00  5.77879822e+00  5.77879822e+00
  5.82259280e+00  5.82259280e+00  1.15306631e+01  1.87372502e+01
  1.87372502e+01  3.14563875e+01  8.73551827e+01  8.76514737e+01
  8.76514737e+01  2.48200068e+02]
B2u nocc = 0
   mo_energy = [-2.76382492e-01 -7.85898752e-02 -3.94798729e-02  1.03143096e-02
  1.03143096e-02  3.81461335e-02  2.19963536e-01  2.19963536e-01
  3.88281070e-01  8.12916734e-01  8.12916734e-01  8.37873927e-01
  8.37873927e-01  8.37873927e-01  1.41247571e+00  2.26651352e+00
  2.26651352e+00  2.36616613e+00  2.36616613e+00  2.36616613e+00
  4.18902502e+00  5.77879822e+00  5.77879822e+00  5.77879822e+00
  5.82259280e+00  5.82259280e+00  1.15306631e+01  1.87372502e+01
  1.87372502e+01  3.14563875e+01  8.73551827e+01  8.76514737e+01
  8.76514737e+01  2.48200068e+02]
B3u nocc = 0
   mo_energy = [-2.76382492e-01 -7.85898752e-02 -3.94798729e-02  1.03143096e-02
  1.03143096e-02  3.81461335e-02  2.19963536e-01  2.19963536e-01
  3.88281070e-01  8.12916734e-01  8.12916734e-01  8.37873927e-01
  8.37873927e-01  8.37873927e-01  1.41247571e+00  2.26651352e+00
  2.26651352e+00  2.36616613e+00  2.36616613e+00  2.36616613e+00
  4.18902502e+00  5.77879822e+00  5.77879822e+00  5.77879822e+00
  5.82259280e+00  5.82259280e+00  1.15306631e+01  1.87372502e+01
  1.87372502e+01  3.14563875e+01  8.73551827e+01  8.76514737e+01
  8.76514737e+01  2.48200068e+02]
E1 = -30.35438345129634  E_coul = 6.116838050596947
cycle= 3 E= -24.2375454006994  delta_E= -0.000385  |g|= 0.00158  |ddm|= 0.058
    CPU time for cycle= 3      1.07 sec, wall time      0.27 sec
diis-norm(errvec)=0.00223484
diis-c [-1.79796671e-06  1.51782006e-02 -1.22055054e-01  1.10687685e+00]
HOMO (Ag) = -0.873835112563143  LUMO (B3u) = -0.275950708485305
irrep_nelec = [4, 0, 0, 0, 0, 0, 0, 0]
Ag nocc = 2  HOMO = -0.873835112563143  LUMO = -0.114495527390442
   mo_energy = [-8.18596627e+00 -8.73835113e-01 -1.14495527e-01 -5.51837301e-02
 -5.51837301e-02 -4.44096588e-02  8.81114296e-03  8.81114296e-03
  1.23917371e-01  2.26010188e-01  2.26010188e-01  2.70643218e-01
  2.70643218e-01  2.70643218e-01  8.45489302e-01  8.58189588e-01
  8.58189588e-01  9.45723394e-01  9.45723394e-01  9.45723394e-01
  2.50159594e+00  2.50159594e+00  2.50159594e+00  2.56135725e+00
  2.56135725e+00  3.41966257e+00  6.42033410e+00  6.42033410e+00
  6.42033410e+00  7.12060143e+00  7.12060143e+00  1.10116983e+01
  1.93503631e+01  1.93503631e+01  2.29177790e+01  2.29177790e+01
  2.29177790e+01  3.07424760e+01  5.64151525e+01  5.64151525e+01
  7.97753129e+01  1.76806003e+02  1.76806003e+02  2.04138135e+02
  7.09976804e+02]
B1g nocc = 0
   mo_energy = [-5.51837301e-02  8.81114296e-03  2.26010188e-01  2.70643218e-01
  2.70643218e-01  8.58189588e-01  9.45723394e-01  9.45723394e-01
  2.50159594e+00  2.50159594e+00  2.56135725e+00  6.42033410e+00
  6.42033410e+00  7.12060143e+00  1.93503631e+01  2.29177790e+01
  2.29177790e+01  5.64151525e+01  1.76806003e+02]
B2g nocc = 0
   mo_energy = [-5.51837301e-02  8.81114296e-03  2.26010188e-01  2.70643218e-01
  2.70643218e-01  8.58189588e-01  9.45723394e-01  9.45723394e-01
  2.50159594e+00  2.50159594e+00  2.56135725e+00  6.42033410e+00
  6.42033410e+00  7.12060143e+00  1.93503631e+01  2.29177790e+01
  2.29177790e+01  5.64151525e+01  1.76806003e+02]
B3g nocc = 0
   mo_energy = [-5.51837301e-02  8.81114296e-03  2.26010188e-01  2.70643218e-01
  2.70643218e-01  8.58189588e-01  9.45723394e-01  9.45723394e-01
  2.50159594e+00  2.50159594e+00  2.56135725e+00  6.42033410e+00
  6.42033410e+00  7.12060143e+00  1.93503631e+01  2.29177790e+01
  2.29177790e+01  5.64151525e+01  1.76806003e+02]
Au nocc = 0
   mo_energy = [1.03154005e-02 2.19991330e-01 8.13078135e-01 8.37898319e-01
 8.37898319e-01 2.26689675e+00 2.36635500e+00 2.36635500e+00
 5.77928801e+00 5.77928801e+00 5.82317592e+00 1.87377861e+01
 8.76513978e+01]
B1u nocc = 0
   mo_energy = [-2.75950708e-01 -7.85803150e-02 -3.94755986e-02  1.03154005e-02
  1.03154005e-02  3.81792463e-02  2.19991330e-01  2.19991330e-01
  3.88439749e-01  8.13078135e-01  8.13078135e-01  8.37898319e-01
  8.37898319e-01  8.37898319e-01  1.41278356e+00  2.26689675e+00
  2.26689675e+00  2.36635500e+00  2.36635500e+00  2.36635500e+00
  4.18943549e+00  5.77928801e+00  5.77928801e+00  5.77928801e+00
  5.82317592e+00  5.82317592e+00  1.15310628e+01  1.87377861e+01
  1.87377861e+01  3.14565402e+01  8.73548520e+01  8.76513978e+01
  8.76513978e+01  2.48199081e+02]
B2u nocc = 0
   mo_energy = [-2.75950708e-01 -7.85803150e-02 -3.94755986e-02  1.03154005e-02
  1.03154005e-02  3.81792463e-02  2.19991330e-01  2.19991330e-01
  3.88439749e-01  8.13078135e-01  8.13078135e-01  8.37898319e-01
  8.37898319e-01  8.37898319e-01  1.41278356e+00  2.26689675e+00
  2.26689675e+00  2.36635500e+00  2.36635500e+00  2.36635500e+00
  4.18943549e+00  5.77928801e+00  5.77928801e+00  5.77928801e+00
  5.82317592e+00  5.82317592e+00  1.15310628e+01  1.87377861e+01
  1.87377861e+01  3.14565402e+01  8.73548520e+01  8.76513978e+01
  8.76513978e+01  2.48199081e+02]
B3u nocc = 0
   mo_energy = [-2.75950708e-01 -7.85803150e-02 -3.94755986e-02  1.03154005e-02
  1.03154005e-02  3.81792463e-02  2.19991330e-01  2.19991330e-01
  3.88439749e-01  8.13078135e-01  8.13078135e-01  8.37898319e-01
  8.37898319e-01  8.37898319e-01  1.41278356e+00  2.26689675e+00
  2.26689675e+00  2.36635500e+00  2.36635500e+00  2.36635500e+00
  4.18943549e+00  5.77928801e+00  5.77928801e+00  5.77928801e+00
  5.82317592e+00  5.82317592e+00  1.15310628e+01  1.87377861e+01
  1.87377861e+01  3.14565402e+01  8.73548520e+01  8.76513978e+01
  8.76513978e+01  2.48199081e+02]
E1 = -30.35551677835287  E_coul = 6.1179697841467044
cycle= 4 E= -24.2375469942062  delta_E= -1.59e-06  |g|= 0.000135  |ddm|= 0.0062
    CPU time for cycle= 4      1.06 sec, wall time      0.27 sec
diis-norm(errvec)=0.0001907
diis-c [-5.71795396e-09 -5.91617122e-04  7.56089109e-03 -1.36248633e-01
  1.12927936e+00]
HOMO (Ag) = -0.873831950677398  LUMO (B2u) = -0.275921641646913
irrep_nelec = [4, 0, 0, 0, 0, 0, 0, 0]
Ag nocc = 2  HOMO = -0.873831950677398  LUMO = -0.114488332521659
   mo_energy = [-8.18594601e+00 -8.73831951e-01 -1.14488333e-01 -5.51822931e-02
 -5.51822931e-02 -4.44060433e-02  8.81618674e-03  8.81618674e-03
  1.23931954e-01  2.26025856e-01  2.26025856e-01  2.70645130e-01
  2.70645130e-01  2.70645130e-01  8.45523831e-01  8.58214907e-01
  8.58214907e-01  9.45737960e-01  9.45737960e-01  9.45737960e-01
  2.50163151e+00  2.50163151e+00  2.50163151e+00  2.56139340e+00
  2.56139340e+00  3.41970102e+00  6.42037531e+00  6.42037531e+00
  6.42037531e+00  7.12063039e+00  7.12063039e+00  1.10117263e+01
  1.93503836e+01  1.93503836e+01  2.29177985e+01  2.29177985e+01
  2.29177985e+01  3.07424996e+01  5.64151748e+01  5.64151748e+01
  7.97753433e+01  1.76806044e+02  1.76806044e+02  2.04138183e+02
  7.09976875e+02]
B1g nocc = 0
   mo_energy = [-5.51822931e-02  8.81618674e-03  2.26025856e-01  2.70645130e-01
  2.70645130e-01  8.58214907e-01  9.45737960e-01  9.45737960e-01
  2.50163151e+00  2.50163151e+00  2.56139340e+00  6.42037531e+00
  6.42037531e+00  7.12063039e+00  1.93503836e+01  2.29177985e+01
  2.29177985e+01  5.64151748e+01  1.76806044e+02]
B2g nocc = 0
   mo_energy = [-5.51822931e-02  8.81618674e-03  2.26025856e-01  2.70645130e-01
  2.70645130e-01  8.58214907e-01  9.45737960e-01  9.45737960e-01
  2.50163151e+00  2.50163151e+00  2.56139340e+00  6.42037531e+00
  6.42037531e+00  7.12063039e+00  1.93503836e+01  2.29177985e+01
  2.29177985e+01  5.64151748e+01  1.76806044e+02]
B3g nocc = 0
   mo_energy = [-5.51822931e-02  8.81618674e-03  2.26025856e-01  2.70645130e-01
  2.70645130e-01  8.58214907e-01  9.45737960e-01  9.45737960e-01
  2.50163151e+00  2.50163151e+00  2.56139340e+00  6.42037531e+00
  6.42037531e+00  7.12063039e+00  1.93503836e+01  2.29177985e+01
  2.29177985e+01  5.64151748e+01  1.76806044e+02]
Au nocc = 0
   mo_energy = [1.03157975e-02 2.19996856e-01 8.13099431e-01 8.37904619e-01
 8.37904619e-01 2.26693356e+00 2.36638252e+00 2.36638252e+00
 5.77933235e+00 5.77933235e+00 5.82321249e+00 1.87378053e+01
 8.76514202e+01]
B1u nocc = 0
   mo_energy = [-2.75921642e-01 -7.85788571e-02 -3.94749208e-02  1.03157975e-02
  1.03157975e-02  3.81844301e-02  2.19996856e-01  2.19996856e-01
  3.88458174e-01  8.13099431e-01  8.13099431e-01  8.37904619e-01
  8.37904619e-01  8.37904619e-01  1.41280945e+00  2.26693356e+00
  2.26693356e+00  2.36638252e+00  2.36638252e+00  2.36638252e+00
  4.18946636e+00  5.77933235e+00  5.77933235e+00  5.77933235e+00
  5.82321249e+00  5.82321249e+00  1.15310905e+01  1.87378053e+01
  1.87378053e+01  3.14565644e+01  8.73548837e+01  8.76514202e+01
  8.76514202e+01  2.48199133e+02]
B2u nocc = 0
   mo_energy = [-2.75921642e-01 -7.85788571e-02 -3.94749208e-02  1.03157975e-02
  1.03157975e-02  3.81844301e-02  2.19996856e-01  2.19996856e-01
  3.88458174e-01  8.13099431e-01  8.13099431e-01  8.37904619e-01
  8.37904619e-01  8.37904619e-01  1.41280945e+00  2.26693356e+00
  2.26693356e+00  2.36638252e+00  2.36638252e+00  2.36638252e+00
  4.18946636e+00  5.77933235e+00  5.77933235e+00  5.77933235e+00
  5.82321249e+00  5.82321249e+00  1.15310905e+01  1.87378053e+01
  1.87378053e+01  3.14565644e+01  8.73548837e+01  8.76514202e+01
  8.76514202e+01  2.48199133e+02]
B3u nocc = 0
   mo_energy = [-2.75921642e-01 -7.85788571e-02 -3.94749208e-02  1.03157975e-02
  1.03157975e-02  3.81844301e-02  2.19996856e-01  2.19996856e-01
  3.88458174e-01  8.13099431e-01  8.13099431e-01  8.37904619e-01
  8.37904619e-01  8.37904619e-01  1.41280945e+00  2.26693356e+00
  2.26693356e+00  2.36638252e+00  2.36638252e+00  2.36638252e+00
  4.18946636e+00  5.77933235e+00  5.77933235e+00  5.77933235e+00
  5.82321249e+00  5.82321249e+00  1.15310905e+01  1.87378053e+01
  1.87378053e+01  3.14565644e+01  8.73548837e+01  8.76514202e+01
  8.76514202e+01  2.48199133e+02]
E1 = -30.355535339506517  E_coul = 6.1179883361101135
cycle= 5 E= -24.2375470033964  delta_E= -9.19e-09  |g|= 6.16e-06  |ddm|= 0.000567
    CPU time for cycle= 5      1.06 sec, wall time      0.27 sec
diis-norm(errvec)=8.70969e-06
diis-c [-8.34300078e-12  4.04851295e-05 -5.71726625e-04  1.10342034e-02
 -1.17067883e-01  1.10656492e+00]
HOMO (Ag) = -0.87383182656051  LUMO (B1u) = -0.275921931770217
irrep_nelec = [4, 0, 0, 0, 0, 0, 0, 0]
Ag nocc = 2  HOMO = -0.87383182656051  LUMO = -0.11448842805437
   mo_energy = [-8.18594739e+00 -8.73831827e-01 -1.14488428e-01 -5.51822604e-02
 -5.51822604e-02 -4.44060747e-02  8.81627774e-03  8.81627774e-03
  1.23931927e-01  2.26025914e-01  2.26025914e-01  2.70645180e-01
  2.70645180e-01  2.70645180e-01  8.45523743e-01  8.58214653e-01
  8.58214653e-01  9.45738187e-01  9.45738187e-01  9.45738187e-01
  2.50163153e+00  2.50163153e+00  2.50163153e+00  2.56139266e+00
  2.56139266e+00  3.41970013e+00  6.42037432e+00  6.42037432e+00
  6.42037432e+00  7.12062897e+00  7.12062897e+00  1.10117249e+01
  1.93503821e+01  1.93503821e+01  2.29177966e+01  2.29177966e+01
  2.29177966e+01  3.07424986e+01  5.64151739e+01  5.64151739e+01
  7.97753429e+01  1.76806044e+02  1.76806044e+02  2.04138183e+02
  7.09976876e+02]
B1g nocc = 0
   mo_energy = [-5.51822604e-02  8.81627774e-03  2.26025914e-01  2.70645180e-01
  2.70645180e-01  8.58214653e-01  9.45738187e-01  9.45738187e-01
  2.50163153e+00  2.50163153e+00  2.56139266e+00  6.42037432e+00
  6.42037432e+00  7.12062897e+00  1.93503821e+01  2.29177966e+01
  2.29177966e+01  5.64151739e+01  1.76806044e+02]
B2g nocc = 0
   mo_energy = [-5.51822604e-02  8.81627774e-03  2.26025914e-01  2.70645180e-01
  2.70645180e-01  8.58214653e-01  9.45738187e-01  9.45738187e-01
  2.50163153e+00  2.50163153e+00  2.56139266e+00  6.42037432e+00
  6.42037432e+00  7.12062897e+00  1.93503821e+01  2.29177966e+01
  2.29177966e+01  5.64151739e+01  1.76806044e+02]
B3g nocc = 0
   mo_energy = [-5.51822604e-02  8.81627774e-03  2.26025914e-01  2.70645180e-01
  2.70645180e-01  8.58214653e-01  9.45738187e-01  9.45738187e-01
  2.50163153e+00  2.50163153e+00  2.56139266e+00  6.42037432e+00
  6.42037432e+00  7.12062897e+00  1.93503821e+01  2.29177966e+01
  2.29177966e+01  5.64151739e+01  1.76806044e+02]
Au nocc = 0
   mo_energy = [1.03158085e-02 2.19996970e-01 8.13099581e-01 8.37904762e-01
 8.37904762e-01 2.26693329e+00 2.36638279e+00 2.36638279e+00
 5.77933189e+00 5.77933189e+00 5.82321130e+00 1.87378036e+01
 8.76514196e+01]
B1u nocc = 0
   mo_energy = [-2.75921932e-01 -7.85789138e-02 -3.94749391e-02  1.03158085e-02
  1.03158085e-02  3.81843572e-02  2.19996970e-01  2.19996970e-01
  3.88458028e-01  8.13099581e-01  8.13099581e-01  8.37904762e-01
  8.37904762e-01  8.37904762e-01  1.41280889e+00  2.26693329e+00
  2.26693329e+00  2.36638279e+00  2.36638279e+00  2.36638279e+00
  4.18946549e+00  5.77933189e+00  5.77933189e+00  5.77933189e+00
  5.82321130e+00  5.82321130e+00  1.15310891e+01  1.87378036e+01
  1.87378036e+01  3.14565633e+01  8.73548835e+01  8.76514196e+01
  8.76514196e+01  2.48199133e+02]
B2u nocc = 0
   mo_energy = [-2.75921932e-01 -7.85789138e-02 -3.94749391e-02  1.03158085e-02
  1.03158085e-02  3.81843572e-02  2.19996970e-01  2.19996970e-01
  3.88458028e-01  8.13099581e-01  8.13099581e-01  8.37904762e-01
  8.37904762e-01  8.37904762e-01  1.41280889e+00  2.26693329e+00
  2.26693329e+00  2.36638279e+00  2.36638279e+00  2.36638279e+00
  4.18946549e+00  5.77933189e+00  5.77933189e+00  5.77933189e+00
  5.82321130e+00  5.82321130e+00  1.15310891e+01  1.87378036e+01
  1.87378036e+01  3.14565633e+01  8.73548835e+01  8.76514196e+01
  8.76514196e+01  2.48199133e+02]
B3u nocc = 0
   mo_energy = [-2.75921932e-01 -7.85789138e-02 -3.94749391e-02  1.03158085e-02
  1.03158085e-02  3.81843572e-02  2.19996970e-01  2.19996970e-01
  3.88458028e-01  8.13099581e-01  8.13099581e-01  8.37904762e-01
  8.37904762e-01  8.37904762e-01  1.41280889e+00  2.26693329e+00
  2.26693329e+00  2.36638279e+00  2.36638279e+00  2.36638279e+00
  4.18946549e+00  5.77933189e+00  5.77933189e+00  5.77933189e+00
  5.82321130e+00  5.82321130e+00  1.15310891e+01  1.87378036e+01
  1.87378036e+01  3.14565633e+01  8.73548835e+01  8.76514196e+01
  8.76514196e+01  2.48199133e+02]
E1 = -30.355535548252043  E_coul = 6.11798854483762
cycle= 6 E= -24.2375470034144  delta_E= -1.8e-11  |g|= 2.49e-07  |ddm|= 5.85e-05
    CPU time for cycle= 6      1.06 sec, wall time      0.27 sec
diis-norm(errvec)=3.51505e-07
diis-c [-2.42664058e-14 -3.94151288e-06  5.49445970e-05 -1.03728224e-03
  1.10734743e-02 -1.22019950e-01  1.11193276e+00]
HOMO (Ag) = -0.87383184936411  LUMO (B2u) = -0.275921921174042
irrep_nelec = [4, 0, 0, 0, 0, 0, 0, 0]
Ag nocc = 2  HOMO = -0.87383184936411  LUMO = -0.114488417166682
   mo_energy = [-8.18594739e+00 -8.73831849e-01 -1.14488417e-01 -5.51822582e-02
 -5.51822582e-02 -4.44060696e-02  8.81628286e-03  8.81628286e-03
  1.23931945e-01  2.26025920e-01  2.26025920e-01  2.70645183e-01
  2.70645183e-01  2.70645183e-01  8.45523764e-01  8.58214666e-01
  8.58214666e-01  9.45738199e-01  9.45738199e-01  9.45738199e-01
  2.50163155e+00  2.50163155e+00  2.50163155e+00  2.56139267e+00
  2.56139267e+00  3.41970014e+00  6.42037433e+00  6.42037433e+00
  6.42037433e+00  7.12062899e+00  7.12062899e+00  1.10117250e+01
  1.93503821e+01  1.93503821e+01  2.29177967e+01  2.29177967e+01
  2.29177967e+01  3.07424986e+01  5.64151739e+01  5.64151739e+01
  7.97753428e+01  1.76806044e+02  1.76806044e+02  2.04138183e+02
  7.09976876e+02]
B1g nocc = 0
   mo_energy = [-5.51822582e-02  8.81628286e-03  2.26025920e-01  2.70645183e-01
  2.70645183e-01  8.58214666e-01  9.45738199e-01  9.45738199e-01
  2.50163155e+00  2.50163155e+00  2.56139267e+00  6.42037433e+00
  6.42037433e+00  7.12062899e+00  1.93503821e+01  2.29177967e+01
  2.29177967e+01  5.64151739e+01  1.76806044e+02]
B2g nocc = 0
   mo_energy = [-5.51822582e-02  8.81628286e-03  2.26025920e-01  2.70645183e-01
  2.70645183e-01  8.58214666e-01  9.45738199e-01  9.45738199e-01
  2.50163155e+00  2.50163155e+00  2.56139267e+00  6.42037433e+00
  6.42037433e+00  7.12062899e+00  1.93503821e+01  2.29177967e+01
  2.29177967e+01  5.64151739e+01  1.76806044e+02]
B3g nocc = 0
   mo_energy = [-5.51822582e-02  8.81628286e-03  2.26025920e-01  2.70645183e-01
  2.70645183e-01  8.58214666e-01  9.45738199e-01  9.45738199e-01
  2.50163155e+00  2.50163155e+00  2.56139267e+00  6.42037433e+00
  6.42037433e+00  7.12062899e+00  1.93503821e+01  2.29177967e+01
  2.29177967e+01  5.64151739e+01  1.76806044e+02]
Au nocc = 0
   mo_energy = [1.03158094e-02 2.19996976e-01 8.13099593e-01 8.37904770e-01
 8.37904770e-01 2.26693330e+00 2.36638281e+00 2.36638281e+00
 5.77933190e+00 5.77933190e+00 5.82321131e+00 1.87378036e+01
 8.76514196e+01]
[...]
  2.70645183e-01  8.58214665e-01  9.45738199e-01  9.45738199e-01
  2.50163155e+00  2.50163155e+00  2.56139267e+00  6.42037433e+00
  6.42037433e+00  7.12062899e+00  1.93503821e+01  2.29177967e+01
  2.29177967e+01  5.64151739e+01  1.76806044e+02]
B3g nocc = 0
   mo_energy = [-5.51822582e-02  8.81628282e-03  2.26025919e-01  2.70645183e-01
  2.70645183e-01  8.58214665e-01  9.45738199e-01  9.45738199e-01
  2.50163155e+00  2.50163155e+00  2.56139267e+00  6.42037433e+00
  6.42037433e+00  7.12062899e+00  1.93503821e+01  2.29177967e+01
  2.29177967e+01  5.64151739e+01  1.76806044e+02]
Au nocc = 0
   mo_energy = [1.03158094e-02 2.19996976e-01 8.13099592e-01 8.37904770e-01
 8.37904770e-01 2.26693330e+00 2.36638281e+00 2.36638281e+00
 5.77933190e+00 5.77933190e+00 5.82321131e+00 1.87378036e+01
 8.76514196e+01]
B1u nocc = 0
   mo_energy = [-2.75921922e-01 -7.85789132e-02 -3.94749386e-02  1.03158094e-02
  1.03158094e-02  3.81843618e-02  2.19996976e-01  2.19996976e-01
  3.88458037e-01  8.13099592e-01  8.13099592e-01  8.37904770e-01
  8.37904770e-01  8.37904770e-01  1.41280890e+00  2.26693330e+00
  2.26693330e+00  2.36638281e+00  2.36638281e+00  2.36638281e+00
  4.18946551e+00  5.77933190e+00  5.77933190e+00  5.77933190e+00
  5.82321131e+00  5.82321131e+00  1.15310891e+01  1.87378036e+01
  1.87378036e+01  3.14565633e+01  8.73548834e+01  8.76514196e+01
  8.76514196e+01  2.48199133e+02]
B2u nocc = 0
   mo_energy = [-2.75921922e-01 -7.85789132e-02 -3.94749386e-02  1.03158094e-02
  1.03158094e-02  3.81843618e-02  2.19996976e-01  2.19996976e-01
  3.88458037e-01  8.13099592e-01  8.13099592e-01  8.37904770e-01
  8.37904770e-01  8.37904770e-01  1.41280890e+00  2.26693330e+00
  2.26693330e+00  2.36638281e+00  2.36638281e+00  2.36638281e+00
  4.18946551e+00  5.77933190e+00  5.77933190e+00  5.77933190e+00
  5.82321131e+00  5.82321131e+00  1.15310891e+01  1.87378036e+01
  1.87378036e+01  3.14565633e+01  8.73548834e+01  8.76514196e+01
  8.76514196e+01  2.48199133e+02]
B3u nocc = 0
   mo_energy = [-2.75921922e-01 -7.85789132e-02 -3.94749386e-02  1.03158094e-02
  1.03158094e-02  3.81843618e-02  2.19996976e-01  2.19996976e-01
  3.88458037e-01  8.13099592e-01  8.13099592e-01  8.37904770e-01
  8.37904770e-01  8.37904770e-01  1.41280890e+00  2.26693330e+00
  2.26693330e+00  2.36638281e+00  2.36638281e+00  2.36638281e+00
  4.18946551e+00  5.77933190e+00  5.77933190e+00  5.77933190e+00
  5.82321131e+00  5.82321131e+00  1.15310891e+01  1.87378036e+01
  1.87378036e+01  3.14565633e+01  8.73548834e+01  8.76514196e+01
  8.76514196e+01  2.48199133e+02]
E1 = -30.355535531639624  E_coul = 6.11798852822518
cycle= 68 E= -24.2375470034144  delta_E= 1.07e-14  |g|= 2.46e-12  |ddm|= 1.56e-11
    CPU time for cycle= 68      1.10 sec, wall time      0.28 sec
diis-norm(errvec)=4.51123e-12
Linear dependence found in DIIS error vectors.
diis-c [-2.89052492e-16  1.25000000e-01  1.25000000e-01  1.25000000e-01
  1.25000000e-01  1.25000000e-01  1.25000000e-01  1.25000000e-01
  1.25000000e-01]
HOMO (Ag) = -0.873831847704867  LUMO (B3u) = -0.27592192221999
irrep_nelec = [4, 0, 0, 0, 0, 0, 0, 0]
Ag nocc = 2  HOMO = -0.873831847704867  LUMO = -0.114488417901381
   mo_energy = [-8.18594739e+00 -8.73831848e-01 -1.14488418e-01 -5.51822582e-02
 -5.51822582e-02 -4.44060699e-02  8.81628282e-03  8.81628282e-03
  1.23931944e-01  2.26025919e-01  2.26025919e-01  2.70645183e-01
  2.70645183e-01  2.70645183e-01  8.45523762e-01  8.58214665e-01
  8.58214665e-01  9.45738199e-01  9.45738199e-01  9.45738199e-01
  2.50163155e+00  2.50163155e+00  2.50163155e+00  2.56139267e+00
  2.56139267e+00  3.41970014e+00  6.42037433e+00  6.42037433e+00
  6.42037433e+00  7.12062899e+00  7.12062899e+00  1.10117250e+01
  1.93503821e+01  1.93503821e+01  2.29177967e+01  2.29177967e+01
  2.29177967e+01  3.07424985e+01  5.64151739e+01  5.64151739e+01
  7.97753428e+01  1.76806044e+02  1.76806044e+02  2.04138183e+02
  7.09976876e+02]
B1g nocc = 0
   mo_energy = [-5.51822582e-02  8.81628282e-03  2.26025919e-01  2.70645183e-01
  2.70645183e-01  8.58214665e-01  9.45738199e-01  9.45738199e-01
  2.50163155e+00  2.50163155e+00  2.56139267e+00  6.42037433e+00
  6.42037433e+00  7.12062899e+00  1.93503821e+01  2.29177967e+01
  2.29177967e+01  5.64151739e+01  1.76806044e+02]
B2g nocc = 0
   mo_energy = [-5.51822582e-02  8.81628282e-03  2.26025919e-01  2.70645183e-01
  2.70645183e-01  8.58214665e-01  9.45738199e-01  9.45738199e-01
  2.50163155e+00  2.50163155e+00  2.56139267e+00  6.42037433e+00
  6.42037433e+00  7.12062899e+00  1.93503821e+01  2.29177967e+01
  2.29177967e+01  5.64151739e+01  1.76806044e+02]
B3g nocc = 0
   mo_energy = [-5.51822582e-02  8.81628282e-03  2.26025919e-01  2.70645183e-01
  2.70645183e-01  8.58214665e-01  9.45738199e-01  9.45738199e-01
  2.50163155e+00  2.50163155e+00  2.56139267e+00  6.42037433e+00
  6.42037433e+00  7.12062899e+00  1.93503821e+01  2.29177967e+01
  2.29177967e+01  5.64151739e+01  1.76806044e+02]
Au nocc = 0
   mo_energy = [1.03158094e-02 2.19996976e-01 8.13099592e-01 8.37904770e-01
 8.37904770e-01 2.26693330e+00 2.36638281e+00 2.36638281e+00
 5.77933190e+00 5.77933190e+00 5.82321131e+00 1.87378036e+01
 8.76514196e+01]
B1u nocc = 0
   mo_energy = [-2.75921922e-01 -7.85789132e-02 -3.94749386e-02  1.03158094e-02
  1.03158094e-02  3.81843618e-02  2.19996976e-01  2.19996976e-01
  3.88458037e-01  8.13099592e-01  8.13099592e-01  8.37904770e-01
  8.37904770e-01  8.37904770e-01  1.41280890e+00  2.26693330e+00
  2.26693330e+00  2.36638281e+00  2.36638281e+00  2.36638281e+00
  4.18946551e+00  5.77933190e+00  5.77933190e+00  5.77933190e+00
  5.82321131e+00  5.82321131e+00  1.15310891e+01  1.87378036e+01
  1.87378036e+01  3.14565633e+01  8.73548834e+01  8.76514196e+01
  8.76514196e+01  2.48199133e+02]
B2u nocc = 0
   mo_energy = [-2.75921922e-01 -7.85789132e-02 -3.94749386e-02  1.03158094e-02
  1.03158094e-02  3.81843618e-02  2.19996976e-01  2.19996976e-01
  3.88458037e-01  8.13099592e-01  8.13099592e-01  8.37904770e-01
  8.37904770e-01  8.37904770e-01  1.41280890e+00  2.26693330e+00
  2.26693330e+00  2.36638281e+00  2.36638281e+00  2.36638281e+00
  4.18946551e+00  5.77933190e+00  5.77933190e+00  5.77933190e+00
  5.82321131e+00  5.82321131e+00  1.15310891e+01  1.87378036e+01
  1.87378036e+01  3.14565633e+01  8.73548834e+01  8.76514196e+01
  8.76514196e+01  2.48199133e+02]
B3u nocc = 0
   mo_energy = [-2.75921922e-01 -7.85789132e-02 -3.94749386e-02  1.03158094e-02
  1.03158094e-02  3.81843618e-02  2.19996976e-01  2.19996976e-01
  3.88458037e-01  8.13099592e-01  8.13099592e-01  8.37904770e-01
  8.37904770e-01  8.37904770e-01  1.41280890e+00  2.26693330e+00
  2.26693330e+00  2.36638281e+00  2.36638281e+00  2.36638281e+00
  4.18946551e+00  5.77933190e+00  5.77933190e+00  5.77933190e+00
  5.82321131e+00  5.82321131e+00  1.15310891e+01  1.87378036e+01
  1.87378036e+01  3.14565633e+01  8.73548834e+01  8.76514196e+01
  8.76514196e+01  2.48199133e+02]
E1 = -30.35553553163942  E_coul = 6.117988528225009
cycle= 69 E= -24.2375470034144  delta_E= 3.55e-14  |g|= 1.18e-12  |ddm|= 2.06e-11
    CPU time for cycle= 69      1.07 sec, wall time      0.27 sec
diis-norm(errvec)=1.72367e-12
Linear dependence found in DIIS error vectors.
diis-c [-2.89052492e-16  1.25000000e-01  1.25000000e-01  1.25000000e-01
  1.25000000e-01  1.25000000e-01  1.25000000e-01  1.25000000e-01
  1.25000000e-01]
HOMO (Ag) = -0.873831847704794  LUMO (B3u) = -0.275921922219988
irrep_nelec = [4, 0, 0, 0, 0, 0, 0, 0]
Ag nocc = 2  HOMO = -0.873831847704794  LUMO = -0.114488417901307
   mo_energy = [-8.18594739e+00 -8.73831848e-01 -1.14488418e-01 -5.51822582e-02
 -5.51822582e-02 -4.44060699e-02  8.81628282e-03  8.81628282e-03
  1.23931944e-01  2.26025919e-01  2.26025919e-01  2.70645183e-01
  2.70645183e-01  2.70645183e-01  8.45523762e-01  8.58214665e-01
  8.58214665e-01  9.45738199e-01  9.45738199e-01  9.45738199e-01
  2.50163155e+00  2.50163155e+00  2.50163155e+00  2.56139267e+00
  2.56139267e+00  3.41970014e+00  6.42037433e+00  6.42037433e+00
  6.42037433e+00  7.12062899e+00  7.12062899e+00  1.10117250e+01
  1.93503821e+01  1.93503821e+01  2.29177967e+01  2.29177967e+01
  2.29177967e+01  3.07424985e+01  5.64151739e+01  5.64151739e+01
  7.97753428e+01  1.76806044e+02  1.76806044e+02  2.04138183e+02
  7.09976876e+02]
B1g nocc = 0
   mo_energy = [-5.51822582e-02  8.81628282e-03  2.26025919e-01  2.70645183e-01
  2.70645183e-01  8.58214665e-01  9.45738199e-01  9.45738199e-01
  2.50163155e+00  2.50163155e+00  2.56139267e+00  6.42037433e+00
  6.42037433e+00  7.12062899e+00  1.93503821e+01  2.29177967e+01
  2.29177967e+01  5.64151739e+01  1.76806044e+02]
B2g nocc = 0
   mo_energy = [-5.51822582e-02  8.81628282e-03  2.26025919e-01  2.70645183e-01
  2.70645183e-01  8.58214665e-01  9.45738199e-01  9.45738199e-01
  2.50163155e+00  2.50163155e+00  2.56139267e+00  6.42037433e+00
  6.42037433e+00  7.12062899e+00  1.93503821e+01  2.29177967e+01
  2.29177967e+01  5.64151739e+01  1.76806044e+02]
B3g nocc = 0
   mo_energy = [-5.51822582e-02  8.81628282e-03  2.26025919e-01  2.70645183e-01
  2.70645183e-01  8.58214665e-01  9.45738199e-01  9.45738199e-01
  2.50163155e+00  2.50163155e+00  2.56139267e+00  6.42037433e+00
  6.42037433e+00  7.12062899e+00  1.93503821e+01  2.29177967e+01
  2.29177967e+01  5.64151739e+01  1.76806044e+02]
Au nocc = 0
   mo_energy = [1.03158094e-02 2.19996976e-01 8.13099592e-01 8.37904770e-01
 8.37904770e-01 2.26693330e+00 2.36638281e+00 2.36638281e+00
 5.77933190e+00 5.77933190e+00 5.82321131e+00 1.87378036e+01
 8.76514196e+01]
B1u nocc = 0
   mo_energy = [-2.75921922e-01 -7.85789132e-02 -3.94749386e-02  1.03158094e-02
  1.03158094e-02  3.81843618e-02  2.19996976e-01  2.19996976e-01
  3.88458037e-01  8.13099592e-01  8.13099592e-01  8.37904770e-01
  8.37904770e-01  8.37904770e-01  1.41280890e+00  2.26693330e+00
  2.26693330e+00  2.36638281e+00  2.36638281e+00  2.36638281e+00
  4.18946551e+00  5.77933190e+00  5.77933190e+00  5.77933190e+00
  5.82321131e+00  5.82321131e+00  1.15310891e+01  1.87378036e+01
  1.87378036e+01  3.14565633e+01  8.73548834e+01  8.76514196e+01
  8.76514196e+01  2.48199133e+02]
B2u nocc = 0
   mo_energy = [-2.75921922e-01 -7.85789132e-02 -3.94749386e-02  1.03158094e-02
  1.03158094e-02  3.81843618e-02  2.19996976e-01  2.19996976e-01
  3.88458037e-01  8.13099592e-01  8.13099592e-01  8.37904770e-01
  8.37904770e-01  8.37904770e-01  1.41280890e+00  2.26693330e+00
  2.26693330e+00  2.36638281e+00  2.36638281e+00  2.36638281e+00
  4.18946551e+00  5.77933190e+00  5.77933190e+00  5.77933190e+00
  5.82321131e+00  5.82321131e+00  1.15310891e+01  1.87378036e+01
  1.87378036e+01  3.14565633e+01  8.73548834e+01  8.76514196e+01
  8.76514196e+01  2.48199133e+02]
B3u nocc = 0
   mo_energy = [-2.75921922e-01 -7.85789132e-02 -3.94749386e-02  1.03158094e-02
  1.03158094e-02  3.81843618e-02  2.19996976e-01  2.19996976e-01
  3.88458037e-01  8.13099592e-01  8.13099592e-01  8.37904770e-01
  8.37904770e-01  8.37904770e-01  1.41280890e+00  2.26693330e+00
  2.26693330e+00  2.36638281e+00  2.36638281e+00  2.36638281e+00
  4.18946551e+00  5.77933190e+00  5.77933190e+00  5.77933190e+00
  5.82321131e+00  5.82321131e+00  1.15310891e+01  1.87378036e+01
  1.87378036e+01  3.14565633e+01  8.73548834e+01  8.76514196e+01
  8.76514196e+01  2.48199133e+02]
E1 = -30.35553553163965  E_coul = 6.117988528225198
cycle= 70 E= -24.2375470034145  delta_E= -4.26e-14  |g|= 1.01e-12  |ddm|= 1.17e-12
    CPU time for cycle= 70      1.08 sec, wall time      0.27 sec
diis-norm(errvec)=1.16196e-12
Linear dependence found in DIIS error vectors.
diis-c [-2.89052492e-16  1.25000000e-01  1.25000000e-01  1.25000000e-01
  1.25000000e-01  1.25000000e-01  1.25000000e-01  1.25000000e-01
  1.25000000e-01]
HOMO (Ag) = -0.873831847704889  LUMO (B1u) = -0.27592192221999
irrep_nelec = [4, 0, 0, 0, 0, 0, 0, 0]
Ag nocc = 2  HOMO = -0.873831847704889  LUMO = -0.11448841790127
   mo_energy = [-8.18594739e+00 -8.73831848e-01 -1.14488418e-01 -5.51822582e-02
 -5.51822582e-02 -4.44060699e-02  8.81628282e-03  8.81628282e-03
  1.23931944e-01  2.26025919e-01  2.26025919e-01  2.70645183e-01
  2.70645183e-01  2.70645183e-01  8.45523762e-01  8.58214665e-01
  8.58214665e-01  9.45738199e-01  9.45738199e-01  9.45738199e-01
  2.50163155e+00  2.50163155e+00  2.50163155e+00  2.56139267e+00
  2.56139267e+00  3.41970014e+00  6.42037433e+00  6.42037433e+00
  6.42037433e+00  7.12062899e+00  7.12062899e+00  1.10117250e+01
  1.93503821e+01  1.93503821e+01  2.29177967e+01  2.29177967e+01
  2.29177967e+01  3.07424985e+01  5.64151739e+01  5.64151739e+01
  7.97753428e+01  1.76806044e+02  1.76806044e+02  2.04138183e+02
  7.09976876e+02]
B1g nocc = 0
   mo_energy = [-5.51822582e-02  8.81628282e-03  2.26025919e-01  2.70645183e-01
  2.70645183e-01  8.58214665e-01  9.45738199e-01  9.45738199e-01
  2.50163155e+00  2.50163155e+00  2.56139267e+00  6.42037433e+00
  6.42037433e+00  7.12062899e+00  1.93503821e+01  2.29177967e+01
  2.29177967e+01  5.64151739e+01  1.76806044e+02]
B2g nocc = 0
   mo_energy = [-5.51822582e-02  8.81628282e-03  2.26025919e-01  2.70645183e-01
  2.70645183e-01  8.58214665e-01  9.45738199e-01  9.45738199e-01
  2.50163155e+00  2.50163155e+00  2.56139267e+00  6.42037433e+00
  6.42037433e+00  7.12062899e+00  1.93503821e+01  2.29177967e+01
  2.29177967e+01  5.64151739e+01  1.76806044e+02]
B3g nocc = 0
   mo_energy = [-5.51822582e-02  8.81628282e-03  2.26025919e-01  2.70645183e-01
  2.70645183e-01  8.58214665e-01  9.45738199e-01  9.45738199e-01
  2.50163155e+00  2.50163155e+00  2.56139267e+00  6.42037433e+00
  6.42037433e+00  7.12062899e+00  1.93503821e+01  2.29177967e+01
  2.29177967e+01  5.64151739e+01  1.76806044e+02]
Au nocc = 0
   mo_energy = [1.03158094e-02 2.19996976e-01 8.13099592e-01 8.37904770e-01
 8.37904770e-01 2.26693330e+00 2.36638281e+00 2.36638281e+00
 5.77933190e+00 5.77933190e+00 5.82321131e+00 1.87378036e+01
 8.76514196e+01]
B1u nocc = 0
   mo_energy = [-2.75921922e-01 -7.85789132e-02 -3.94749386e-02  1.03158094e-02
  1.03158094e-02  3.81843618e-02  2.19996976e-01  2.19996976e-01
  3.88458037e-01  8.13099592e-01  8.13099592e-01  8.37904770e-01
  8.37904770e-01  8.37904770e-01  1.41280890e+00  2.26693330e+00
  2.26693330e+00  2.36638281e+00  2.36638281e+00  2.36638281e+00
  4.18946551e+00  5.77933190e+00  5.77933190e+00  5.77933190e+00
  5.82321131e+00  5.82321131e+00  1.15310891e+01  1.87378036e+01
  1.87378036e+01  3.14565633e+01  8.73548834e+01  8.76514196e+01
  8.76514196e+01  2.48199133e+02]
B2u nocc = 0
   mo_energy = [-2.75921922e-01 -7.85789132e-02 -3.94749386e-02  1.03158094e-02
  1.03158094e-02  3.81843618e-02  2.19996976e-01  2.19996976e-01
  3.88458037e-01  8.13099592e-01  8.13099592e-01  8.37904770e-01
  8.37904770e-01  8.37904770e-01  1.41280890e+00  2.26693330e+00
  2.26693330e+00  2.36638281e+00  2.36638281e+00  2.36638281e+00
  4.18946551e+00  5.77933190e+00  5.77933190e+00  5.77933190e+00
  5.82321131e+00  5.82321131e+00  1.15310891e+01  1.87378036e+01
  1.87378036e+01  3.14565633e+01  8.73548834e+01  8.76514196e+01
  8.76514196e+01  2.48199133e+02]
B3u nocc = 0
   mo_energy = [-2.75921922e-01 -7.85789132e-02 -3.94749386e-02  1.03158094e-02
  1.03158094e-02  3.81843618e-02  2.19996976e-01  2.19996976e-01
  3.88458037e-01  8.13099592e-01  8.13099592e-01  8.37904770e-01
  8.37904770e-01  8.37904770e-01  1.41280890e+00  2.26693330e+00
  2.26693330e+00  2.36638281e+00  2.36638281e+00  2.36638281e+00
  4.18946551e+00  5.77933190e+00  5.77933190e+00  5.77933190e+00
  5.82321131e+00  5.82321131e+00  1.15310891e+01  1.87378036e+01
  1.87378036e+01  3.14565633e+01  8.73548834e+01  8.76514196e+01
  8.76514196e+01  2.48199133e+02]
E1 = -30.355535531639532  E_coul = 6.117988528225064
cycle= 71 E= -24.2375470034145  delta_E= -1.78e-14  |g|= 9.89e-13  |ddm|= 8.19e-13
    CPU time for cycle= 71      1.06 sec, wall time      0.27 sec
HOMO (Ag) = -0.873831847704905  LUMO (B3u) = -0.275921922219995
irrep_nelec = [4, 0, 0, 0, 0, 0, 0, 0]
Ag nocc = 2  HOMO = -0.873831847704905  LUMO = -0.11448841790134
   mo_energy = [-8.18594739e+00 -8.73831848e-01 -1.14488418e-01 -5.51822582e-02
 -5.51822582e-02 -4.44060699e-02  8.81628282e-03  8.81628282e-03
  1.23931944e-01  2.26025919e-01  2.26025919e-01  2.70645183e-01
  2.70645183e-01  2.70645183e-01  8.45523762e-01  8.58214665e-01
  8.58214665e-01  9.45738199e-01  9.45738199e-01  9.45738199e-01
  2.50163155e+00  2.50163155e+00  2.50163155e+00  2.56139267e+00
  2.56139267e+00  3.41970014e+00  6.42037433e+00  6.42037433e+00
  6.42037433e+00  7.12062899e+00  7.12062899e+00  1.10117250e+01
  1.93503821e+01  1.93503821e+01  2.29177967e+01  2.29177967e+01
  2.29177967e+01  3.07424985e+01  5.64151739e+01  5.64151739e+01
  7.97753428e+01  1.76806044e+02  1.76806044e+02  2.04138183e+02
  7.09976876e+02]
B1g nocc = 0
   mo_energy = [-5.51822582e-02  8.81628282e-03  2.26025919e-01  2.70645183e-01
  2.70645183e-01  8.58214665e-01  9.45738199e-01  9.45738199e-01
  2.50163155e+00  2.50163155e+00  2.56139267e+00  6.42037433e+00
  6.42037433e+00  7.12062899e+00  1.93503821e+01  2.29177967e+01
  2.29177967e+01  5.64151739e+01  1.76806044e+02]
B2g nocc = 0
   mo_energy = [-5.51822582e-02  8.81628282e-03  2.26025919e-01  2.70645183e-01
  2.70645183e-01  8.58214665e-01  9.45738199e-01  9.45738199e-01
  2.50163155e+00  2.50163155e+00  2.56139267e+00  6.42037433e+00
  6.42037433e+00  7.12062899e+00  1.93503821e+01  2.29177967e+01
  2.29177967e+01  5.64151739e+01  1.76806044e+02]
B3g nocc = 0
   mo_energy = [-5.51822582e-02  8.81628282e-03  2.26025919e-01  2.70645183e-01
  2.70645183e-01  8.58214665e-01  9.45738199e-01  9.45738199e-01
  2.50163155e+00  2.50163155e+00  2.56139267e+00  6.42037433e+00
  6.42037433e+00  7.12062899e+00  1.93503821e+01  2.29177967e+01
  2.29177967e+01  5.64151739e+01  1.76806044e+02]
Au nocc = 0
   mo_energy = [1.03158094e-02 2.19996976e-01 8.13099592e-01 8.37904770e-01
 8.37904770e-01 2.26693330e+00 2.36638281e+00 2.36638281e+00
 5.77933190e+00 5.77933190e+00 5.82321131e+00 1.87378036e+01
 8.76514196e+01]
B1u nocc = 0
   mo_energy = [-2.75921922e-01 -7.85789132e-02 -3.94749386e-02  1.03158094e-02
  1.03158094e-02  3.81843618e-02  2.19996976e-01  2.19996976e-01
  3.88458037e-01  8.13099592e-01  8.13099592e-01  8.37904770e-01
  8.37904770e-01  8.37904770e-01  1.41280890e+00  2.26693330e+00
  2.26693330e+00  2.36638281e+00  2.36638281e+00  2.36638281e+00
  4.18946551e+00  5.77933190e+00  5.77933190e+00  5.77933190e+00
  5.82321131e+00  5.82321131e+00  1.15310891e+01  1.87378036e+01
  1.87378036e+01  3.14565633e+01  8.73548834e+01  8.76514196e+01
  8.76514196e+01  2.48199133e+02]
B2u nocc = 0
   mo_energy = [-2.75921922e-01 -7.85789132e-02 -3.94749386e-02  1.03158094e-02
  1.03158094e-02  3.81843618e-02  2.19996976e-01  2.19996976e-01
  3.88458037e-01  8.13099592e-01  8.13099592e-01  8.37904770e-01
  8.37904770e-01  8.37904770e-01  1.41280890e+00  2.26693330e+00
  2.26693330e+00  2.36638281e+00  2.36638281e+00  2.36638281e+00
  4.18946551e+00  5.77933190e+00  5.77933190e+00  5.77933190e+00
  5.82321131e+00  5.82321131e+00  1.15310891e+01  1.87378036e+01
  1.87378036e+01  3.14565633e+01  8.73548834e+01  8.76514196e+01
  8.76514196e+01  2.48199133e+02]
B3u nocc = 0
   mo_energy = [-2.75921922e-01 -7.85789132e-02 -3.94749386e-02  1.03158094e-02
  1.03158094e-02  3.81843618e-02  2.19996976e-01  2.19996976e-01
  3.88458037e-01  8.13099592e-01  8.13099592e-01  8.37904770e-01
  8.37904770e-01  8.37904770e-01  1.41280890e+00  2.26693330e+00
  2.26693330e+00  2.36638281e+00  2.36638281e+00  2.36638281e+00
  4.18946551e+00  5.77933190e+00  5.77933190e+00  5.77933190e+00
  5.82321131e+00  5.82321131e+00  1.15310891e+01  1.87378036e+01
  1.87378036e+01  3.14565633e+01  8.73548834e+01  8.76514196e+01
  8.76514196e+01  2.48199133e+02]
E1 = -30.35553553163964  E_coul = 6.1179885282251565
Extra cycle  E= -24.2375470034145  delta_E= -1.42e-14  |g|= 1.82e-12  |ddm|= 8.19e-13
    CPU time for scf_cycle    123.23 sec, wall time     31.45 sec
    CPU time for SCF    123.24 sec, wall time     31.46 sec
converged SCF energy = -24.2375470034145
