Starting run at: Thu Jan 30 00:43:52 EST 2025
 **********************************************************************
                          MRCC program system
 **********************************************************************

                              Written by
     Mihaly Kallay, Peter R. Nagy, David Mester, Laszlo Gyevi-Nagy,
        Jozsef Csoka, P. Bernat Szabo, Zoltan Rolik, Gyula Samu,
     Jozsef Csontos, Bence Hegely, Adam Ganyecz, Istvan Ladjanszki,
       Lorant Szegedy, Bence Ladoczki, Klara Petrov, Mate Farkas,
                    Pal D. Mezei, and Reka A. Horvath

        Department of Physical Chemistry and Materials Science
            Budapest University of Technology and Economics
                  Budapest P.O.Box 91, H-1521 Hungary

                              www.mrcc.hu

                     Release date: August 28, 2023

 ************************ 2025-01-30 00:43:53 *************************
 Executing minp...

 Reading input from MINP...

 Input file:

basis=aCVQZ-EMSL
iface=cfour
uncontract=off
calc=CC(6)
ccprog=mrcc
mem=1950GB
core=corr
itol=18
scftol=13
cctol=10
ccmaxit=999
scfmaxit=9999
scfiguess=ao
scftype=UHF
#rohftype=semicanonical
rest=2
charge=+0
mult=3
refdet=serialno
1-3
4,5

symm=2
occ=2,0,0,0,0,1,1,1/2,0,0,0,0,0,0,1
geom
O

#Li 1 R
#R=3.065

#unit=angstroms

tprint=0.01
verbosity=3
#nstate=4


 Checking keyword combinations...

 Keywords:

 active=none
 agrid=ld0006-ld0590
 agrid_pssp=ld0006-ld0194
 agrid_pssp_sm=ld0006-ld0074
 basis=acvqz-emsl
 basis_sm=none
 basopt=off
 bfbasis=none
 bfgsmem=10
 bfgstol=1.0d-3
 boysalg=jacobi
 bpcompo=0.985
 bpcompv=0.98
 bpdfo=0.985
 bpocc=0.985
 bppdo=0.985
 bppdv=0.98
 bpedo=0.985
 bpedv=0.98
 calc=cc(6)
 ccmaxit=999
 ccprog=mrcc
 ccsdalg=disk
 ccsdmkl=seq
 ccsdrest=off
 ccsdthreads=2
 cctol=10
 charge=+0
 cialg=disk
 ciguess=off
 cmpgrp=auto
 comprest=off
 coord_sys=ric
 core=corr
 corembed=off
 csapprox=off
 cvs=off
 dboc=off
 delocsomofact=
 dendec=cholesky
 dens=0
 denscorr=0
 dfalg=lineq
 dfbasis_cab=none
 dfbasis_cor=none
 dfbasis_scf=none
 dfbasis_scf_sm=none
 dfintran=ovirt
 dft=off
 dhexc=adc(2)
 diag=david
 docc=
 domrad=10.d0
 drpaalg=fit
 dual=off
 dual_df=off
 ecp=auto
 edisp=off
 edisp_embed=off
 embed=off
 epairestfact=off
 epairscale=1.d0
 etemp=300
 epert=none
 eps=
 espcharge=off
 excrad=0.d0
 excrad_fin=0.000000000D+00
 fitting=coulomb
 fmm=off
 fmmord=8
 fnonorb=
 freq=off
 gamma=1.d0
 gauss=spher
 geom=zmat
 gopt=off
 ghost=none
 gtol=7
 grdens=off
 grid=auto
 grid_sm=auto
 gridbatch_cos=2000
 grtol=10
 guido_ct=off
 hamilton=dc
 iface=cfour
 intalg=auto
 ip_ea=off
 itol=18
 laptol=1.d-2
 lccoporder=trffirst
 lcorthr=normal
 lccrest=off
 ldfgrad_tol=8
 lmp2dens=on
 lnoepso=0.d0
 lnoepsv=1e-6
 localcc=off
 localcorrsymm=off
 locintrf=disk
 mact=
 maxact=off
 maxdim=200
 maxex=0
 maxmicroit=100
 mcscfiguess=hf
 mem=1950gb
 mmprog=
 molden=on
 mpitasks=1
 mulmet=0
 mult=3
 nab=off
 nacto=0
 nactv=0
 naf_amp=3.16d-3
 naf_cor=off
 naf_f12=off
 naf_scf=off
 nafalg=albe
 nafdens=off
 naftyp=
 nchol=auto
 ndeps=1e-3
 nstate=1
 nsing=0
 nto=off
 ntrip=0
 num_grad=off
 occ=2,0,0,0,0,1,1,1/2,0,0,0,0,0,0,1
 occri=off
 oniom=off
 oniom_eechg=off
 oniom_pcm=off
 oniom_qcorr=off
 optalg=
 optmaxit=50
 optetol=1e-6
 optex=0
 optgtol=1e-4
 optstol=1e-3
 orblocc=off
 orbloce=off
 orbloco=off
 orblocv=off
 orblocguess=cholesky
 osveps=1e-3
 ovirt=off
 ovltol=1e-7
 ovosnorb=80.0
 pao_subsys_tol=1e-3
 pcm=off
 popul=off
 pressure=100000
 pssp=off
 ptfreq=0.0
 ptthreads=2
 qmreg=
 qmmm=off
 qro=off
 qscf=off
 redcost_exc=off
 redcost_tddft=off
 refdet=serialno
 rest=2
 rgrid=log3
 rism=off
 rohfcore=semicanonical
 rohftype=standard
 scfalg=auto
 scf_conv=auto
 scfdamp=0.0d0
 scfdamp_mode=off
 scfdamp_end=9999
 scfdamp_dampstep=0.d0
 scfdamp_dtol=0.0d0
 scfdamp_maxfact=0.0d0
 scfdamp_minfact=0.0d0
 scfdiis=on
 scfdiis_dtol=0.0d0
 scfdiis_end=9999
 scfdiis_start=2
 scfdiis_step=1
 scfdiis_watch=off
 scfdiis_wrange=10
 scfdiis_wlimit=5
 scfdiis_delmax=2
 scfdtol=14
 scfext=10
 scfguessdens=
 scfiguess=ao
 scfloc=off
 scflshift=0.20
 scflshift_end=8
 scflshift_dtol=0.0
 scflshift_gaptol=0.20
 scfmaxit=9999
 scftype=uhf
 scftol=13
 scspe=1.d0
 scsph=1.d0
 scsps=1.2d0
 scsps_t=1.2d0
 scspt=0.33333333333333
 scspt_t=0.33333333333333
 scspv=1.d0
 spairtol=1e-4
 sqmprog=
 subminp=top
 symm=2
 talg=occ
 temp=298.15
 test=off
 theodore=off
 tlmo=0.999
 tpao=0.94
 tprint=0.01
 uncontract=off
 unit=angs
 usedisk=2
 verbosity=3
 wpairtol=0.100000000E-05

 ************************ 2025-01-30 00:43:55 *************************
 Executing goldstone...

 Generation of CC equations in terms of H and T...
 Generation of antisymmetrized Goldstone diagrams...
 Number of diagrams in T^1 equations:    15
 Number of diagrams in T^2 equations:    38
 Number of diagrams in T^3 equations:    54
 Number of diagrams in T^4 equations:    81
 Number of diagrams in T^5 equations:   105
 Number of diagrams in T^6 equations:   135
 Translation of diagrams to factorized equations...
 Optimizing intermediate calculation...
 Number of floating-point operations per iteration step:   4.5114E+16
 Probable CPU time per iteration step (hours):       451143.76
 Required memory (Mbytes):      24218912.8
 Number of intermediates:                                 190
 Number of intermediates to be stored:                     72
 Length of intermediate file (Mbytes):        287094.5

 ************************ 2025-01-30 00:43:55 *************************
 Executing xmrcc...

 **********************************************************************
 CC(                     6 ) calculation


 Allocation of      1996800.0 Mbytes of memory...
 Number of spinorbitals:                   218
 Number of alpha electrons:                        5
 Number of beta electrons:                         3
 Spin multiplicity:                     2
 z-component of spin:  1.0
 Spatial symmetry:                      2
 Convergence criterion:  1.0E-10
 Construction of occupation graphs...
 Number of                     0 -fold excitations:                      1
 Number of                     1 -fold excitations:                    160
 Number of                     2 -fold excitations:                  31675
 Number of                     3 -fold excitations:                3491644
 Number of                     4 -fold excitations:              199604301
 Number of                     5 -fold excitations:             6016578096
 Number of                     6 -fold excitations:            95546916429
 Total number of configurations:           101766622306
 Calculation of coupling coefficients...
 Length of intermediate file (Mbytes):        163678.7

 ======================================================================

 Memory requirements /Mbyte/:
               Minimal        Optimal
 Real*8:  113148602.3497 113148602.3497
 Integer:     58519.6594
 Total:   113207122.0091 113207122.0091


 ************************ 2025-01-30 01:10:50 *************************
 Executing goldstone...

 Generation of MRCC equations in terms of H and T...
 Generation of antisymmetrized Goldstone diagrams...
 Number of diagrams in T^1 equations:    15
 Number of diagrams in T^2 equations:    38
 Number of diagrams in T^3 equations:    54
 Number of diagrams in T^4 equations:    81
 Number of diagrams in T^5 equations:   105
 Number of diagrams in T^6 equations:   135
 Translation of diagrams to factorized equations...
 Number of restricted diagrams in T^1 equations:     30
 Number of restricted diagrams in T^2 equations:    129
 Number of restricted diagrams in T^3 equations:    306
 Number of restricted diagrams in T^4 equations:    674
 Number of restricted diagrams in T^5 equations:   1282
 Number of restricted diagrams in T^6 equations:   2288
 Optimizing intermediate calculation...
 Number of floating-point operations per iteration step:   4.4448E+16
 Probable CPU time per iteration step (hours):       444477.46
 Required memory (Mbytes):        938126.0
 Number of intermediates:                                1163
 Number of intermediates to be stored:                    374
 Length of intermediate file (Mbytes):       2348972.3

 ************************ 2025-01-30 01:10:53 *************************
 Executing xmrcc...

 **********************************************************************
 MRCC(                     6 ) calculation


 Allocation of      1996800.0 Mbytes of memory...
 Number of spinorbitals:                   218
 Number of alpha electrons:                        5
 Number of beta electrons:                         3
 Number of active particles:                   106
 Number of active holes:                         0
 Spin multiplicity:                     2
 z-component of spin:  1.0
 Spatial symmetry:                      2
 Convergence criterion:  1.0E-10
 Construction of occupation graphs...
 Number of                     0 -fold excitations:                      1
 Number of                     1 -fold excitations:                    160
 Number of                     2 -fold excitations:                  31675
 Number of                     3 -fold excitations:                3491644
 Number of                     4 -fold excitations:              199604301
 Number of                     5 -fold excitations:             6016578096
 Number of                     6 -fold excitations:            95546916429
 Total number of configurations:           101766622306
 Calculation of coupling coefficients...
 Length of intermediate file (Mbytes):       1525853.1

 ======================================================================

 Memory requirements /Mbyte/:
               Minimal        Optimal
 Real*8:    2611897.6430   2611897.6430
 Integer:     59180.4518
 Total:     2671078.0947   2671078.0947


 ************************ 2025-01-30 01:53:58 *************************
 Executing goldstone...

 Generation of MRCC equations in terms of H and T...
 Generation of antisymmetrized Goldstone diagrams...
 Number of diagrams in T^1 equations:    15
 Number of diagrams in T^2 equations:    38
 Number of diagrams in T^3 equations:    54
 Number of diagrams in T^4 equations:    81
 Number of diagrams in T^5 equations:   105
 Number of diagrams in T^6 equations:   135
 Translation of diagrams to factorized equations...
 Number of restricted diagrams in T^1 equations:     30
 Number of restricted diagrams in T^2 equations:    129
 Number of restricted diagrams in T^3 equations:    306
 Number of restricted diagrams in T^4 equations:    674
 Number of restricted diagrams in T^5 equations:   1282
 Number of restricted diagrams in T^6 equations:   2288
 Optimizing intermediate calculation...
 Number of floating-point operations per iteration step:   4.5392E+16
 Probable CPU time per iteration step (hours):       453918.69
 Required memory (Mbytes):        938127.1
 Number of intermediates:                                1163
 Number of intermediates to be stored:                    375
 Length of intermediate file (Mbytes):       2365685.8

 ************************ 2025-01-30 01:54:00 *************************
 Executing xmrcc...

 **********************************************************************
 MRCC(                     6 ) calculation


 Allocation of      1996800.0 Mbytes of memory...
 Number of spinorbitals:                   218
 Number of alpha electrons:                        5
 Number of beta electrons:                         3
 Number of active particles:                   104
 Number of active holes:                         0
 Spin multiplicity:                     2
 z-component of spin:  1.0
 Spatial symmetry:                      2
 Convergence criterion:  1.0E-10
 Construction of occupation graphs...
 Number of                     0 -fold excitations:                      1
 Number of                     1 -fold excitations:                    160
 Number of                     2 -fold excitations:                  31675
 Number of                     3 -fold excitations:                3491644
 Number of                     4 -fold excitations:              199604301
 Number of                     5 -fold excitations:             6016578096
 Number of                     6 -fold excitations:            95546916429
 Total number of configurations:           101766622306
 Calculation of coupling coefficients...
 Length of intermediate file (Mbytes):       1537312.5

 ======================================================================

 Memory requirements /Mbyte/:
               Minimal        Optimal
 Real*8:    2612949.0302   2612949.0302
 Integer:     59180.4518
 Total:     2672129.4820   2672129.4820


 ************************ 2025-01-30 02:36:43 *************************
 Executing goldstone...

 Generation of MRCC equations in terms of H and T...
 Generation of antisymmetrized Goldstone diagrams...
 Number of diagrams in T^1 equations:    15
 Number of diagrams in T^2 equations:    38
 Number of diagrams in T^3 equations:    54
 Number of diagrams in T^4 equations:    81
 Number of diagrams in T^5 equations:   105
 Number of diagrams in T^6 equations:   135
 Translation of diagrams to factorized equations...
 Number of restricted diagrams in T^1 equations:     30
 Number of restricted diagrams in T^2 equations:    129
 Number of restricted diagrams in T^3 equations:    306
 Number of restricted diagrams in T^4 equations:    674
 Number of restricted diagrams in T^5 equations:   1282
 Number of restricted diagrams in T^6 equations:   2288
 Optimizing intermediate calculation...
 Number of floating-point operations per iteration step:   4.4906E+16
 Probable CPU time per iteration step (hours):       449065.00
 Required memory (Mbytes):        936044.4
 Number of intermediates:                                1174
 Number of intermediates to be stored:                    374
 Length of intermediate file (Mbytes):       2321805.1

 ************************ 2025-01-30 02:36:45 *************************
 Executing xmrcc...

 **********************************************************************
 MRCC(                     6 ) calculation


 Allocation of      1996800.0 Mbytes of memory...
 Number of spinorbitals:                   218
 Number of alpha electrons:                        5
 Number of beta electrons:                         3
 Number of active particles:                   108
 Number of active holes:                         0
 Spin multiplicity:                     2
 z-component of spin:  1.0
 Spatial symmetry:                      2
 Convergence criterion:  1.0E-10
 Construction of occupation graphs...
 Number of                     0 -fold excitations:                      1
 Number of                     1 -fold excitations:                    160
 Number of                     2 -fold excitations:                  31675
 Number of                     3 -fold excitations:                3491644
 Number of                     4 -fold excitations:              199604301
 Number of                     5 -fold excitations:             6016578096
 Number of                     6 -fold excitations:            95546916429
 Total number of configurations:           101766622306
 Calculation of coupling coefficients...
 Length of intermediate file (Mbytes):       1502883.8

 ======================================================================

 Memory requirements /Mbyte/:
               Minimal        Optimal
 Real*8:    2605070.3400   2605070.3400
 Integer:     59180.5423
 Total:     2664250.8823   2664250.8823


 ************************ 2025-01-30 03:18:36 *************************
 Executing goldstone...

 Generation of MRCC equations in terms of H and T...
 Generation of antisymmetrized Goldstone diagrams...
 Number of diagrams in T^1 equations:    15
 Number of diagrams in T^2 equations:    38
 Number of diagrams in T^3 equations:    54
 Number of diagrams in T^4 equations:    81
 Number of diagrams in T^5 equations:   105
 Number of diagrams in T^6 equations:   135
 Translation of diagrams to factorized equations...
 Number of restricted diagrams in T^1 equations:     30
 Number of restricted diagrams in T^2 equations:    129
 Number of restricted diagrams in T^3 equations:    306
 Number of restricted diagrams in T^4 equations:    674
 Number of restricted diagrams in T^5 equations:   1282
 Number of restricted diagrams in T^6 equations:   2288
 Optimizing intermediate calculation...
 Number of floating-point operations per iteration step:   4.4026E+16
 Probable CPU time per iteration step (hours):       440255.47
 Required memory (Mbytes):        931891.3
 Number of intermediates:                                1173
 Number of intermediates to be stored:                    376
 Length of intermediate file (Mbytes):       2337203.6

 ************************ 2025-01-30 03:18:38 *************************
 Executing xmrcc...

 **********************************************************************
 MRCC(                     6 ) calculation


 Allocation of      1996800.0 Mbytes of memory...
 Number of spinorbitals:                   218
 Number of alpha electrons:                        5
 Number of beta electrons:                         3
 Number of active particles:                   110
 Number of active holes:                         0
 Spin multiplicity:                     2
 z-component of spin:  1.0
 Spatial symmetry:                      2
 Convergence criterion:  1.0E-10
 Construction of occupation graphs...
 Number of                     0 -fold excitations:                      1
 Number of                     1 -fold excitations:                    160
 Number of                     2 -fold excitations:                  31675
 Number of                     3 -fold excitations:                3491644
 Number of                     4 -fold excitations:              199604301
 Number of                     5 -fold excitations:             6016578096
 Number of                     6 -fold excitations:            95546916429
 Total number of configurations:           101766622306
 Calculation of coupling coefficients...
 Length of intermediate file (Mbytes):       1529902.6

 ======================================================================

 Memory requirements /Mbyte/:
               Minimal        Optimal
 Real*8:    2592480.4481   2592480.4481
 Integer:     59180.5341
 Total:     2651660.9822   2651660.9822


 ************************ 2025-01-30 04:00:44 *************************
 Executing goldstone...

 Generation of MRCC equations in terms of H and T...
 Generation of antisymmetrized Goldstone diagrams...
 Number of diagrams in T^1 equations:    15
 Number of diagrams in T^2 equations:    38
 Number of diagrams in T^3 equations:    54
 Number of diagrams in T^4 equations:    81
 Number of diagrams in T^5 equations:   105
 Number of diagrams in T^6 equations:   135
 Translation of diagrams to factorized equations...
 Number of restricted diagrams in T^1 equations:     30
 Number of restricted diagrams in T^2 equations:    129
 Number of restricted diagrams in T^3 equations:    306
 Number of restricted diagrams in T^4 equations:    674
 Number of restricted diagrams in T^5 equations:   1282
 Number of restricted diagrams in T^6 equations:   2288
 Optimizing intermediate calculation...
 Number of floating-point operations per iteration step:   4.3137E+16
 Probable CPU time per iteration step (hours):       431373.62
 Required memory (Mbytes):        925685.4
 Number of intermediates:                                1174
 Number of intermediates to be stored:                    377
 Length of intermediate file (Mbytes):       2344042.3

 ************************ 2025-01-30 04:00:46 *************************
 Executing xmrcc...

 **********************************************************************
 MRCC(                     6 ) calculation


 Allocation of      1996800.0 Mbytes of memory...
 Number of spinorbitals:                   218
 Number of alpha electrons:                        5
 Number of beta electrons:                         3
 Number of active particles:                   112
 Number of active holes:                         0
 Spin multiplicity:                     2
 z-component of spin:  1.0
 Spatial symmetry:                      2
 Convergence criterion:  1.0E-10
 Construction of occupation graphs...
 Number of                     0 -fold excitations:                      1
 Number of                     1 -fold excitations:                    160
 Number of                     2 -fold excitations:                  31675
 Number of                     3 -fold excitations:                3491644
 Number of                     4 -fold excitations:              199604301
 Number of                     5 -fold excitations:             6016578096
 Number of                     6 -fold excitations:            95546916429
 Total number of configurations:           101766622306
 Calculation of coupling coefficients...
 Length of intermediate file (Mbytes):       1537887.0

 ======================================================================

 Memory requirements /Mbyte/:
               Minimal        Optimal
 Real*8:    2574155.2952   2574155.2952
 Integer:     59180.5423
 Total:     2633335.8376   2633335.8376


 ************************ 2025-01-30 04:41:57 *************************
 Executing goldstone...

 Generation of MRCC equations in terms of H and T...
 Generation of antisymmetrized Goldstone diagrams...
 Number of diagrams in T^1 equations:    15
 Number of diagrams in T^2 equations:    38
 Number of diagrams in T^3 equations:    54
 Number of diagrams in T^4 equations:    81
 Number of diagrams in T^5 equations:   105
 Number of diagrams in T^6 equations:   135
 Translation of diagrams to factorized equations...
 Number of restricted diagrams in T^1 equations:     30
 Number of restricted diagrams in T^2 equations:    129
 Number of restricted diagrams in T^3 equations:    306
 Number of restricted diagrams in T^4 equations:    674
 Number of restricted diagrams in T^5 equations:   1282
 Number of restricted diagrams in T^6 equations:   2288
 Optimizing intermediate calculation...
 Number of floating-point operations per iteration step:   4.2236E+16
 Probable CPU time per iteration step (hours):       422363.90
 Required memory (Mbytes):        917454.0
 Number of intermediates:                                1172
 Number of intermediates to be stored:                    376
 Length of intermediate file (Mbytes):       2239855.9

 ************************ 2025-01-30 04:42:00 *************************
 Executing xmrcc...

 **********************************************************************
 MRCC(                     6 ) calculation


 Allocation of      1996800.0 Mbytes of memory...
 Number of spinorbitals:                   218
 Number of alpha electrons:                        5
 Number of beta electrons:                         3
 Number of active particles:                   114
 Number of active holes:                         0
 Spin multiplicity:                     2
 z-component of spin:  1.0
 Spatial symmetry:                      2
 Convergence criterion:  1.0E-10
 Construction of occupation graphs...
 Number of                     0 -fold excitations:                      1
 Number of                     1 -fold excitations:                    160
 Number of                     2 -fold excitations:                  31675
 Number of                     3 -fold excitations:                3491644
 Number of                     4 -fold excitations:              199604301
 Number of                     5 -fold excitations:             6016578096
 Number of                     6 -fold excitations:            95546916429
 Total number of configurations:           101766622306
 Calculation of coupling coefficients...
 Length of intermediate file (Mbytes):       1488629.3

 ======================================================================

 Memory requirements /Mbyte/:
               Minimal        Optimal
 Real*8:    2550198.0852   2550198.0852
 Integer:     59180.5259
 Total:     2609378.6110   2609378.6110


 ************************ 2025-01-30 05:27:38 *************************
 Executing goldstone...

 Generation of MRCC equations in terms of H and T...
 Generation of antisymmetrized Goldstone diagrams...
 Number of diagrams in T^1 equations:    15
 Number of diagrams in T^2 equations:    38
 Number of diagrams in T^3 equations:    54
 Number of diagrams in T^4 equations:    81
 Number of diagrams in T^5 equations:   105
 Number of diagrams in T^6 equations:   135
 Translation of diagrams to factorized equations...
 Number of restricted diagrams in T^1 equations:     30
 Number of restricted diagrams in T^2 equations:    129
 Number of restricted diagrams in T^3 equations:    306
 Number of restricted diagrams in T^4 equations:    674
 Number of restricted diagrams in T^5 equations:   1282
 Number of restricted diagrams in T^6 equations:   2288
 Optimizing intermediate calculation...
 Number of floating-point operations per iteration step:   4.1349E+16
 Probable CPU time per iteration step (hours):       413492.98
 Required memory (Mbytes):        907233.9
 Number of intermediates:                                1172
 Number of intermediates to be stored:                    376
 Length of intermediate file (Mbytes):       2237108.2

 ************************ 2025-01-30 05:27:40 *************************
 Executing xmrcc...

 **********************************************************************
 MRCC(                     6 ) calculation


 Allocation of      1996800.0 Mbytes of memory...
 Number of spinorbitals:                   218
 Number of alpha electrons:                        5
 Number of beta electrons:                         3
 Number of active particles:                   116
 Number of active holes:                         0
 Spin multiplicity:                     2
 z-component of spin:  1.0
 Spatial symmetry:                      2
 Convergence criterion:  1.0E-10
 Construction of occupation graphs...
 Number of                     0 -fold excitations:                      1
 Number of                     1 -fold excitations:                    160
 Number of                     2 -fold excitations:                  31675
 Number of                     3 -fold excitations:                3491644
 Number of                     4 -fold excitations:              199604301
 Number of                     5 -fold excitations:             6016578096
 Number of                     6 -fold excitations:            95546916429
 Total number of configurations:           101766622306
 Calculation of coupling coefficients...
 Length of intermediate file (Mbytes):       1491871.6

 ======================================================================

 Memory requirements /Mbyte/:
               Minimal        Optimal
 Real*8:    2520735.7615   2520735.7615
 Integer:     59180.5259
 Total:     2579916.2873   2579916.2873


 ************************ 2025-01-30 06:14:13 *************************
 Executing goldstone...

 Generation of MRCC equations in terms of H and T...
 Generation of antisymmetrized Goldstone diagrams...
 Number of diagrams in T^1 equations:    15
 Number of diagrams in T^2 equations:    38
 Number of diagrams in T^3 equations:    54
 Number of diagrams in T^4 equations:    81
 Number of diagrams in T^5 equations:   105
 Number of diagrams in T^6 equations:   135
 Translation of diagrams to factorized equations...
 Number of restricted diagrams in T^1 equations:     30
 Number of restricted diagrams in T^2 equations:    129
 Number of restricted diagrams in T^3 equations:    306
 Number of restricted diagrams in T^4 equations:    674
 Number of restricted diagrams in T^5 equations:   1282
 Number of restricted diagrams in T^6 equations:   2288
 Optimizing intermediate calculation...
 Number of floating-point operations per iteration step:   4.0461E+16
 Probable CPU time per iteration step (hours):       404612.91
 Required memory (Mbytes):        895070.5
 Number of intermediates:                                1174
 Number of intermediates to be stored:                    375
 Length of intermediate file (Mbytes):       2233161.8

 ************************ 2025-01-30 06:14:16 *************************
 Executing xmrcc...

 **********************************************************************
 MRCC(                     6 ) calculation


 Allocation of      1996800.0 Mbytes of memory...
 Number of spinorbitals:                   218
 Number of alpha electrons:                        5
 Number of beta electrons:                         3
 Number of active particles:                   118
 Number of active holes:                         0
 Spin multiplicity:                     2
 z-component of spin:  1.0
 Spatial symmetry:                      2
 Convergence criterion:  1.0E-10
 Construction of occupation graphs...
 Number of                     0 -fold excitations:                      1
 Number of                     1 -fold excitations:                    160
 Number of                     2 -fold excitations:                  31675
 Number of                     3 -fold excitations:                3491644
 Number of                     4 -fold excitations:              199604301
 Number of                     5 -fold excitations:             6016578096
 Number of                     6 -fold excitations:            95546916429
 Total number of configurations:           101766622306
 Calculation of coupling coefficients...
 Length of intermediate file (Mbytes):       1494588.9

 ======================================================================

 Memory requirements /Mbyte/:
               Minimal        Optimal
 Real*8:    2485888.8700   2485888.8700
 Integer:     59180.5423
 Total:     2545069.4124   2545069.4124


 ************************ 2025-01-30 06:59:30 *************************
 Executing goldstone...

 Generation of MRCC equations in terms of H and T...
 Generation of antisymmetrized Goldstone diagrams...
 Number of diagrams in T^1 equations:    15
 Number of diagrams in T^2 equations:    38
 Number of diagrams in T^3 equations:    54
 Number of diagrams in T^4 equations:    81
 Number of diagrams in T^5 equations:   105
 Number of diagrams in T^6 equations:   135
 Translation of diagrams to factorized equations...
 Number of restricted diagrams in T^1 equations:     30
 Number of restricted diagrams in T^2 equations:    129
 Number of restricted diagrams in T^3 equations:    306
 Number of restricted diagrams in T^4 equations:    674
 Number of restricted diagrams in T^5 equations:   1282
 Number of restricted diagrams in T^6 equations:   2288
 Optimizing intermediate calculation...
 Number of floating-point operations per iteration step:   3.9589E+16
 Probable CPU time per iteration step (hours):       395887.58
 Required memory (Mbytes):        881018.0
 Number of intermediates:                                1173
 Number of intermediates to be stored:                    373
 Length of intermediate file (Mbytes):       2121213.7

 ************************ 2025-01-30 06:59:32 *************************
 Executing xmrcc...

 **********************************************************************
 MRCC(                     6 ) calculation


 Allocation of      1996800.0 Mbytes of memory...
 Number of spinorbitals:                   218
 Number of alpha electrons:                        5
 Number of beta electrons:                         3
 Number of active particles:                   120
 Number of active holes:                         0
 Spin multiplicity:                     2
 z-component of spin:  1.0
 Spatial symmetry:                      2
 Convergence criterion:  1.0E-10
 Construction of occupation graphs...
 Number of                     0 -fold excitations:                      1
 Number of                     1 -fold excitations:                    160
 Number of                     2 -fold excitations:                  31675
 Number of                     3 -fold excitations:                3491644
 Number of                     4 -fold excitations:              199604301
 Number of                     5 -fold excitations:             6016578096
 Number of                     6 -fold excitations:            95546916429
 Total number of configurations:           101766622306
 Calculation of coupling coefficients...
 Length of intermediate file (Mbytes):       1441677.3

 ======================================================================

 Memory requirements /Mbyte/:
               Minimal        Optimal
 Real*8:    2445788.3310   2445788.3310
 Integer:     59180.5341
 Total:     2504968.8651   2504968.8651


 ************************ 2025-01-30 07:43:40 *************************
 Executing goldstone...

 Generation of MRCC equations in terms of H and T...
 Generation of antisymmetrized Goldstone diagrams...
 Number of diagrams in T^1 equations:    15
 Number of diagrams in T^2 equations:    38
 Number of diagrams in T^3 equations:    54
 Number of diagrams in T^4 equations:    81
 Number of diagrams in T^5 equations:   105
 Number of diagrams in T^6 equations:   135
 Translation of diagrams to factorized equations...
 Number of restricted diagrams in T^1 equations:     30
 Number of restricted diagrams in T^2 equations:    129
 Number of restricted diagrams in T^3 equations:    306
 Number of restricted diagrams in T^4 equations:    674
 Number of restricted diagrams in T^5 equations:   1282
 Number of restricted diagrams in T^6 equations:   2288
 Optimizing intermediate calculation...
 Number of floating-point operations per iteration step:   3.8694E+16
 Probable CPU time per iteration step (hours):       386941.96
 Required memory (Mbytes):        897833.1
 Number of intermediates:                                1174
 Number of intermediates to be stored:                    373
 Length of intermediate file (Mbytes):       2120915.1

 ************************ 2025-01-30 07:43:42 *************************
 Executing xmrcc...

 **********************************************************************
 MRCC(                     6 ) calculation


 Allocation of      1996800.0 Mbytes of memory...
 Number of spinorbitals:                   218
 Number of alpha electrons:                        5
 Number of beta electrons:                         3
 Number of active particles:                   122
 Number of active holes:                         0
 Spin multiplicity:                     2
 z-component of spin:  1.0
 Spatial symmetry:                      2
 Convergence criterion:  1.0E-10
 Construction of occupation graphs...
 Number of                     0 -fold excitations:                      1
 Number of                     1 -fold excitations:                    160
 Number of                     2 -fold excitations:                  31675
 Number of                     3 -fold excitations:                3491644
 Number of                     4 -fold excitations:              199604301
 Number of                     5 -fold excitations:             6016578096
 Number of                     6 -fold excitations:            95546916429
 Total number of configurations:           101766622306
 Calculation of coupling coefficients...
 Length of intermediate file (Mbytes):       1446684.9

 ======================================================================

 Memory requirements /Mbyte/:
               Minimal        Optimal
 Real*8:    2400619.5002   2400619.5002
 Integer:     59180.5423
 Total:     2459800.0426   2459800.0426


 ************************ 2025-01-30 08:28:52 *************************
 Executing goldstone...

 Generation of MRCC equations in terms of H and T...
 Generation of antisymmetrized Goldstone diagrams...
 Number of diagrams in T^1 equations:    15
 Number of diagrams in T^2 equations:    38
 Number of diagrams in T^3 equations:    54
 Number of diagrams in T^4 equations:    81
 Number of diagrams in T^5 equations:   105
 Number of diagrams in T^6 equations:   135
 Translation of diagrams to factorized equations...
 Number of restricted diagrams in T^1 equations:     30
 Number of restricted diagrams in T^2 equations:    129
 Number of restricted diagrams in T^3 equations:    306
 Number of restricted diagrams in T^4 equations:    674
 Number of restricted diagrams in T^5 equations:   1282
 Number of restricted diagrams in T^6 equations:   2288
 Optimizing intermediate calculation...
 Number of floating-point operations per iteration step:   3.7806E+16
 Probable CPU time per iteration step (hours):       378060.12
 Required memory (Mbytes):        915607.4
 Number of intermediates:                                1172
 Number of intermediates to be stored:                    374
 Length of intermediate file (Mbytes):       2121745.3

 ************************ 2025-01-30 08:28:55 *************************
 Executing xmrcc...

 **********************************************************************
 MRCC(                     6 ) calculation


 Allocation of      1996800.0 Mbytes of memory...
 Number of spinorbitals:                   218
 Number of alpha electrons:                        5
 Number of beta electrons:                         3
 Number of active particles:                   124
 Number of active holes:                         0
 Spin multiplicity:                     2
 z-component of spin:  1.0
 Spatial symmetry:                      2
 Convergence criterion:  1.0E-10
 Construction of occupation graphs...
 Number of                     0 -fold excitations:                      1
 Number of                     1 -fold excitations:                    160
 Number of                     2 -fold excitations:                  31675
 Number of                     3 -fold excitations:                3491644
 Number of                     4 -fold excitations:              199604301
 Number of                     5 -fold excitations:             6016578096
 Number of                     6 -fold excitations:            95546916429
 Total number of configurations:           101766622306
 Calculation of coupling coefficients...
 Length of intermediate file (Mbytes):       1452462.2

 ======================================================================

 Memory requirements /Mbyte/:
               Minimal        Optimal
 Real*8:    2350609.2399   2350609.2399
 Integer:     59180.5259
 Total:     2409789.7658   2409789.7658


 ************************ 2025-01-30 09:13:40 *************************
 Executing goldstone...

 Generation of MRCC equations in terms of H and T...
 Generation of antisymmetrized Goldstone diagrams...
 Number of diagrams in T^1 equations:    15
 Number of diagrams in T^2 equations:    38
 Number of diagrams in T^3 equations:    54
 Number of diagrams in T^4 equations:    81
 Number of diagrams in T^5 equations:   105
 Number of diagrams in T^6 equations:   135
 Translation of diagrams to factorized equations...
 Number of restricted diagrams in T^1 equations:     30
 Number of restricted diagrams in T^2 equations:    129
 Number of restricted diagrams in T^3 equations:    306
 Number of restricted diagrams in T^4 equations:    674
 Number of restricted diagrams in T^5 equations:   1282
 Number of restricted diagrams in T^6 equations:   2288
 Optimizing intermediate calculation...
 Number of floating-point operations per iteration step:   3.6910E+16
 Probable CPU time per iteration step (hours):       369104.20
 Required memory (Mbytes):        931717.6
 Number of intermediates:                                1174
 Number of intermediates to be stored:                    374
 Length of intermediate file (Mbytes):       2122010.3

 ************************ 2025-01-30 09:13:42 *************************
 Executing xmrcc...

 **********************************************************************
 MRCC(                     6 ) calculation


 Allocation of      1996800.0 Mbytes of memory...
 Number of spinorbitals:                   218
 Number of alpha electrons:                        5
 Number of beta electrons:                         3
 Number of active particles:                   126
 Number of active holes:                         0
 Spin multiplicity:                     2
 z-component of spin:  1.0
 Spatial symmetry:                      2
 Convergence criterion:  1.0E-10
 Construction of occupation graphs...
 Number of                     0 -fold excitations:                      1
 Number of                     1 -fold excitations:                    160
 Number of                     2 -fold excitations:                  31675
 Number of                     3 -fold excitations:                3491644
 Number of                     4 -fold excitations:              199604301
 Number of                     5 -fold excitations:             6016578096
 Number of                     6 -fold excitations:            95546916429
 Total number of configurations:           101766622306
 Calculation of coupling coefficients...
 Length of intermediate file (Mbytes):       1458093.4

 ======================================================================

 Memory requirements /Mbyte/:
               Minimal        Optimal
 Real*8:    2372754.0147   2372754.0147
 Integer:     59180.5423
 Total:     2431934.5570   2431934.5570


 ************************ 2025-01-30 09:58:45 *************************
 Executing goldstone...

 Generation of MRCC equations in terms of H and T...
 Generation of antisymmetrized Goldstone diagrams...
 Number of diagrams in T^1 equations:    15
 Number of diagrams in T^2 equations:    38
 Number of diagrams in T^3 equations:    54
 Number of diagrams in T^4 equations:    81
 Number of diagrams in T^5 equations:   105
 Number of diagrams in T^6 equations:   135
 Translation of diagrams to factorized equations...
 Number of restricted diagrams in T^1 equations:     60
 Number of restricted diagrams in T^2 equations:    438
 Number of restricted diagrams in T^3 equations:   1732
 Number of restricted diagrams in T^4 equations:   5744
 Number of restricted diagrams in T^5 equations:  13652
 Number of restricted diagrams in T^6 equations:  25787
 Optimizing intermediate calculation...
 Number of floating-point operations per iteration step:   1.3376E+16
 Probable CPU time per iteration step (hours):       133760.82
 Required memory (Mbytes):        523206.9
 Number of intermediates:                                7371
 Number of intermediates to be stored:                   1939
 Length of intermediate file (Mbytes):       2368832.9

 ************************ 2025-01-30 09:59:04 *************************
 Executing xmrcc...

 **********************************************************************
 MRCC(                     6 ) calculation


 Allocation of      1996800.0 Mbytes of memory...
 Number of spinorbitals:                   218
 Number of alpha electrons:                        5
 Number of beta electrons:                         3
 Number of active particles:                   124
 Number of active holes:                         4
 Spin multiplicity:                     2
 z-component of spin:  1.0
 Spatial symmetry:                      2
 Convergence criterion:  1.0E-10
 Construction of occupation graphs...
 Number of                     0 -fold excitations:                      1
 Number of                     1 -fold excitations:                    160
 Number of                     2 -fold excitations:                  31675
 Number of                     3 -fold excitations:                3491644
 Number of                     4 -fold excitations:              199604301
 Number of                     5 -fold excitations:             6016578096
 Number of                     6 -fold excitations:            95546916429
 Total number of configurations:           101766622306
 Calculation of coupling coefficients...
 Length of intermediate file (Mbytes):       2952777.1

 ======================================================================

 Memory requirements /Mbyte/:
               Minimal        Optimal
 Real*8:    1399145.4081   1399145.4081
 Integer:     59448.2995
 Total:     1458593.7075   1458593.7075


 ************************ 2025-01-30 10:44:42 *************************
 Executing goldstone...

 Generation of MRCC equations in terms of H and T...
 Generation of antisymmetrized Goldstone diagrams...
 Number of diagrams in T^1 equations:    15
 Number of diagrams in T^2 equations:    34
 Number of diagrams in T^3 equations:     2
 Translation of diagrams to factorized equations...
 Number of restricted diagrams in T^1 equations:    440
 Number of restricted diagrams in T^2 equations:   2800
 Number of restricted diagrams in T^3 equations:    144
 Optimizing intermediate calculation...
 Number of floating-point operations per iteration step:   3.3116E+09
 Probable CPU time per iteration step (hours):            0.03
 Required memory (Mbytes):         15915.1
 Number of intermediates:                                1286
 Number of intermediates to be stored:                    545
 Length of intermediate file (Mbytes):           292.2

 ************************ 2025-01-30 10:44:54 *************************
 Executing xmrcc...

 **********************************************************************
 MRCC(                     3 ) calculation


 Allocation of      1996800.0 Mbytes of memory...
 Number of spinorbitals:                   218
 Number of alpha electrons:                        5
 Number of beta electrons:                         3
 Number of active particles:                   124
 Number of active holes:                         4
 Spin multiplicity:                     2
 z-component of spin:  1.0
 Spatial symmetry:                      2
 Convergence criterion:  1.0E-10
 Construction of occupation graphs...
 Number of                     0 -fold excitations:                      1
 Number of                     1 -fold excitations:                    160
 Number of                     2 -fold excitations:                  31675
 Total number of configurations:                  31836
 Calculation of coupling coefficients...
 Length of intermediate file (Mbytes):           229.7

 ======================================================================

 Spin case  1   Alpha:  1   Beta:  2
 Number of excitations:                  28954
 Spin case  2   Alpha:  2   Beta:  1
 Number of excitations:                  28875
 Spin case  3   Alpha:  0   Beta:  3
 Number of excitations:                   4723
 Spin case  4   Alpha:  1   Beta:  2
 Number of excitations:                  44371
 Spin case  5   Alpha:  1   Beta:  2
 Number of excitations:                  58652
 Spin case  6   Alpha:  2   Beta:  1
 Number of excitations:                 175863
 Spin case  7   Alpha:  2   Beta:  1
 Number of excitations:                  14593
 Spin case  8   Alpha:  3   Beta:  0
 Number of excitations:                  14140
 Spin case  9   Alpha:  1   Beta:  2
 Number of excitations:                  89019
 Spin case 10   Alpha:  2   Beta:  1
 Number of excitations:                  89238
 Spin case 11   Alpha:  2   Beta:  1
 Number of excitations:                  88171
 Spin case 12   Alpha:  3   Beta:  0
 Number of excitations:                  28368
 Spin case 13   Alpha:  2   Beta:  1
 Number of excitations:                  44478
 Spin case 14   Alpha:  3   Beta:  0
 Number of excitations:                   4756
 Spin case 15   Alpha:  1   Beta:  2
 Number of excitations:                  19593
 Spin case 16   Alpha:  1   Beta:  2
 Number of excitations:                  41582
 Spin case 17   Alpha:  2   Beta:  1
 Number of excitations:                  39270
 Spin case 18   Alpha:  2   Beta:  1
 Number of excitations:                  20351
 Spin case 19   Alpha:  0   Beta:  3
 Number of excitations:                  10439
 Spin case 20   Alpha:  1   Beta:  2
 Number of excitations:                  30109
 Spin case 21   Alpha:  1   Beta:  2
 Number of excitations:                  39742
 Spin case 22   Alpha:  1   Beta:  2
 Number of excitations:                  64868
 Spin case 23   Alpha:  1   Beta:  2
 Number of excitations:                  84568
 Spin case 24   Alpha:  2   Beta:  1
 Number of excitations:                 242172
 Spin case 25   Alpha:  2   Beta:  1
 Number of excitations:                  19940
 Spin case 26   Alpha:  2   Beta:  1
 Number of excitations:                 124893
 Spin case 27   Alpha:  2   Beta:  1
 Number of excitations:                  10293
 Spin case 28   Alpha:  3   Beta:  0
 Number of excitations:                  29264
 Spin case 29   Alpha:  1   Beta:  2
 Number of excitations:                  60492
 Spin case 30   Alpha:  1   Beta:  2
 Number of excitations:                 130380
 Spin case 31   Alpha:  2   Beta:  1
 Number of excitations:                 124362
 Spin case 32   Alpha:  2   Beta:  1
 Number of excitations:                 121818
 Spin case 33   Alpha:  2   Beta:  1
 Number of excitations:                  63666
 Spin case 34   Alpha:  2   Beta:  1
 Number of excitations:                  62657
 Spin case 35   Alpha:  3   Beta:  0
 Number of excitations:                  59390
 Spin case 36   Alpha:  2   Beta:  1
 Number of excitations:                  61874
 Spin case 37   Alpha:  2   Beta:  1
 Number of excitations:                  31759
 Spin case 38   Alpha:  3   Beta:  0
 Number of excitations:                  10045
 Spin case 39   Alpha:  1   Beta:  2
 Number of excitations:                  28080
 Spin case 40   Alpha:  1   Beta:  2
 Number of excitations:                  14448
 Spin case 41   Alpha:  2   Beta:  1
 Number of excitations:                  13014
 Spin case 42   Alpha:  2   Beta:  1
 Number of excitations:                  27554
 Spin case 43   Alpha:  0   Beta:  3
 Number of excitations:                   7453
 Spin case 44   Alpha:  1   Beta:  2
 Number of excitations:                  44183
 Spin case 45   Alpha:  1   Beta:  2
 Number of excitations:                  57288
 Spin case 46   Alpha:  1   Beta:  2
 Number of excitations:                  22587
 Spin case 47   Alpha:  1   Beta:  2
 Number of excitations:                  29346
 Spin case 48   Alpha:  2   Beta:  1
 Number of excitations:                  80073
 Spin case 49   Alpha:  2   Beta:  1
 Number of excitations:                   6604
 Spin case 50   Alpha:  2   Beta:  1
 Number of excitations:                 171852
 Spin case 51   Alpha:  2   Beta:  1
 Number of excitations:                  14036
 Spin case 52   Alpha:  3   Beta:  0
 Number of excitations:                  19551
 Spin case 53   Alpha:  1   Beta:  2
 Number of excitations:                  88956
 Spin case 54   Alpha:  1   Beta:  2
 Number of excitations:                  45282
 Spin case 55   Alpha:  2   Beta:  1
 Number of excitations:                  41031
 Spin case 56   Alpha:  2   Beta:  1
 Number of excitations:                  40260
 Spin case 57   Alpha:  2   Beta:  1
 Number of excitations:                  89214
 Spin case 58   Alpha:  2   Beta:  1
 Number of excitations:                  86410
 Spin case 59   Alpha:  3   Beta:  0
 Number of excitations:                  39854
 Spin case 60   Alpha:  2   Beta:  1
 Number of excitations:                  20428
 Spin case 61   Alpha:  2   Beta:  1
 Number of excitations:                  44342
 Spin case 62   Alpha:  3   Beta:  0
 Number of excitations:                   6783
 Spin case 63   Alpha:  1   Beta:  2
 Number of excitations:                   9813
 Spin case 64   Alpha:  2   Beta:  1
 Number of excitations:                   9130
 Spin case 65   Alpha:  0   Beta:  3
 Number of excitations:                   1679
 Spin case 66   Alpha:  1   Beta:  2
 Number of excitations:                  15375
 Spin case 67   Alpha:  1   Beta:  2
 Number of excitations:                  19886
 Spin case 68   Alpha:  2   Beta:  1
 Number of excitations:                  56883
 Spin case 69   Alpha:  2   Beta:  1
 Number of excitations:                   4659
 Spin case 70   Alpha:  3   Beta:  0
 Number of excitations:                   4284
 Spin case 71   Alpha:  1   Beta:  2
 Number of excitations:                  30903
 Spin case 72   Alpha:  2   Beta:  1
 Number of excitations:                  29379
 Spin case 73   Alpha:  2   Beta:  1
 Number of excitations:                  28588
 Spin case 74   Alpha:  3   Beta:  0
 Number of excitations:                   8648
 Spin case 75   Alpha:  2   Beta:  1
 Number of excitations:                  14624
 Spin case 76   Alpha:  3   Beta:  0
 Number of excitations:                   1436
 Number of                     3 -fold excitations:                3491644

 Memory requirements /Mbyte/:
               Minimal        Optimal
 Real*8:        127.6002      1077.3218
 Integer:        98.0769
 Total:         225.6771      1175.3987


 ************************ 2025-01-30 10:45:17 *************************
 Executing mrcc...

 **********************************************************************
 CCSD(T) calculation


 OpenMP parallel version is running.
 Number of CPU cores:  36
 Allocation of         1077.3 Mbytes of memory...
 Number of spinorbitals: 218
 Number of alpha electrons:  5
 Number of beta  electrons:  3
 Number of active particles:                   124
 Number of active holes:                         4
 Spin multiplicity: 3
 z-component of spin:  1.0
 Spatial symmetry: 2
 Convergence criterion:  1.0E-10
 Construction of occupation graphs...
 Number of 0-fold excitations: 1
 Number of 1-fold excitations: 160
 Number of 2-fold excitations: 31675
 Total number of determinants: 31836
 Calculation of coupling coefficients...
 Initial cluster amplitudes are generated.
 Length of intermediate file (Mbytes):           229.7
 Reading integral list from unit 55...
 Sorting integrals...
 Sorting integrals...
 Sorting integrals...
 Sorting integrals...
 Energy of reference determinant [au]:     -74.634409649005
 Calculation of MP denominators...

 Starting CC iteration...
 ======================================================================
 Norm of residual vector:     3.12932120
 CPU time [min]:    14.939                   Wall time [min]:     0.989

 Iteration  1  CC energy:   -74.96951975  Energy decrease:   0.33511010
 ======================================================================
 Norm of residual vector:     0.44570178
 CPU time [min]:    24.740                   Wall time [min]:     1.318

 Iteration  2  CC energy:   -75.03061129  Energy decrease:   0.06109154
 ======================================================================
 Norm of residual vector:     0.13617950
 CPU time [min]:    35.357                   Wall time [min]:     1.688

 Iteration  3  CC energy:   -75.05455874  Energy decrease:   0.02394745
 ======================================================================
 Norm of residual vector:     0.03673153
 CPU time [min]:    44.667                   Wall time [min]:     2.038

 Iteration  4  CC energy:   -75.04618947  Energy decrease:   0.00836927
 ======================================================================
 Norm of residual vector:     0.01588309
 CPU time [min]:    54.186                   Wall time [min]:     2.362

 Iteration  5  CC energy:   -75.05121848  Energy decrease:   0.00502902
 ======================================================================
 Norm of residual vector:     0.00608619
 CPU time [min]:    63.888                   Wall time [min]:     2.686

 Iteration  6  CC energy:   -75.05151126  Energy decrease:   0.00029278
 ======================================================================
 Norm of residual vector:     0.00224527
 CPU time [min]:    73.453                   Wall time [min]:     3.006

 Iteration  7  CC energy:   -75.05122529  Energy decrease:   0.00028597
 ======================================================================
 Norm of residual vector:     0.00079154
 CPU time [min]:    83.090                   Wall time [min]:     3.346

 Iteration  8  CC energy:   -75.05134212  Energy decrease:   0.00011684
 ======================================================================
 Norm of residual vector:     0.00029290
 CPU time [min]:    92.877                   Wall time [min]:     3.665

 Iteration  9  CC energy:   -75.05132383  Energy decrease:   0.00001830
 ======================================================================
 Norm of residual vector:     0.00008231
 CPU time [min]:   103.913                   Wall time [min]:     4.063

 Iteration 10  CC energy:   -75.05131946  Energy decrease:   0.00000437
 ======================================================================
 Norm of residual vector:     0.00002661
 CPU time [min]:   113.892                   Wall time [min]:     4.422

 Iteration 11  CC energy:   -75.05132158  Energy decrease:   0.00000212
 ======================================================================
 Norm of residual vector:     0.00000662
 CPU time [min]:   124.530                   Wall time [min]:     4.823

 Iteration 12  CC energy:   -75.05132199  Energy decrease:   0.00000041
 ======================================================================
 Norm of residual vector:     0.00000195
 CPU time [min]:   135.825                   Wall time [min]:     5.240

 Iteration 13  CC energy:   -75.05132202  Energy decrease:   0.00000003
 ======================================================================
 Norm of residual vector:     0.00000061
 CPU time [min]:   146.482                   Wall time [min]:     5.620

 Iteration 14  CC energy:   -75.05132195  Energy decrease:   0.00000007
 ======================================================================
 Norm of residual vector:     0.00000021
 CPU time [min]:   157.328                   Wall time [min]:     5.981

 Iteration 15  CC energy:   -75.05132197  Energy decrease:   0.00000002
 ======================================================================
 Norm of residual vector:     0.00000005
 CPU time [min]:   167.610                   Wall time [min]:     6.330

 Iteration 16  CC energy:   -75.05132196  Energy decrease:   4.9726E-09
 ======================================================================
 Norm of residual vector:     0.00000001
 CPU time [min]:   177.211                   Wall time [min]:     6.649

 Iteration 17  CC energy:   -75.05132197  Energy decrease:   2.1221E-09
 ======================================================================
 Norm of residual vector:     3.0345E-09
 CPU time [min]:   187.055                   Wall time [min]:     6.973

 Iteration 18  CC energy:   -75.05132197  Energy decrease:   3.2345E-10
 ======================================================================
 Norm of residual vector:     9.3719E-10
 CPU time [min]:   196.735                   Wall time [min]:     7.290

 Iteration 19  CC energy:   -75.05132197  Energy decrease:   2.7427E-12
 ======================================================================
 Norm of residual vector:     3.0372E-10
 CPU time [min]:   205.983                   Wall time [min]:     7.627

 Iteration 20  CC energy:   -75.05132197  Energy decrease:   1.8304E-11
 ======================================================================
 Norm of residual vector:     7.1955E-11
 CPU time [min]:   215.592                   Wall time [min]:     7.966

 Iteration 21  CC energy:   -75.05132197  Energy decrease:   3.6948E-13
 ======================================================================

 Iteration has converged in 21 steps.

 Final results:
 Total CCSD energy [au]:                      -75.051321966411

 Perturbative corrections are calculated...
 ======================================================================
 Spin case  1   Alpha:  1   Beta:  2
 Number of excitations:        28954
 CPU time [min]:   215.942                   Wall time [min]:     7.990
 ======================================================================
 Spin case  2   Alpha:  2   Beta:  1
 Number of excitations:        28875
 CPU time [min]:   216.153                   Wall time [min]:     7.997
 ======================================================================
 Spin case  3   Alpha:  0   Beta:  3
 Number of excitations:        4723
 CPU time [min]:   216.257                   Wall time [min]:     8.001
 ======================================================================
 Spin case  4   Alpha:  1   Beta:  2
 Number of excitations:        44371
 CPU time [min]:   216.468                   Wall time [min]:     8.009
 ======================================================================
 Spin case  5   Alpha:  1   Beta:  2
 Number of excitations:        58652
 CPU time [min]:   216.729                   Wall time [min]:     8.019
 ======================================================================
 Spin case  6   Alpha:  2   Beta:  1
 Number of excitations:        175863
 CPU time [min]:   217.034                   Wall time [min]:     8.030
 ======================================================================
 Spin case  7   Alpha:  2   Beta:  1
 Number of excitations:        14593
 CPU time [min]:   217.258                   Wall time [min]:     8.039
 ======================================================================
 Spin case  8   Alpha:  3   Beta:  0
 Number of excitations:        14140
 CPU time [min]:   217.383                   Wall time [min]:     8.043
 ======================================================================
 Spin case  9   Alpha:  1   Beta:  2
 Number of excitations:        89019
 CPU time [min]:   217.653                   Wall time [min]:     8.053
 ======================================================================
 Spin case 10   Alpha:  2   Beta:  1
 Number of excitations:        89238
 CPU time [min]:   217.847                   Wall time [min]:     8.061
 ======================================================================
 Spin case 11   Alpha:  2   Beta:  1
 Number of excitations:        88171
 CPU time [min]:   218.175                   Wall time [min]:     8.072
 ======================================================================
 Spin case 12   Alpha:  3   Beta:  0
 Number of excitations:        28368
 CPU time [min]:   218.311                   Wall time [min]:     8.076
 ======================================================================
 Spin case 13   Alpha:  2   Beta:  1
 Number of excitations:        44478
 CPU time [min]:   218.509                   Wall time [min]:     8.082
 ======================================================================
 Spin case 14   Alpha:  3   Beta:  0
 Number of excitations:        4756
 CPU time [min]:   218.592                   Wall time [min]:     8.085
 ======================================================================
 Spin case 15   Alpha:  1   Beta:  2
 Number of excitations:        19593
 CPU time [min]:   218.818                   Wall time [min]:     8.092
 ======================================================================
 Spin case 16   Alpha:  1   Beta:  2
 Number of excitations:        41582
 CPU time [min]:   219.234                   Wall time [min]:     8.104
 ======================================================================
 Spin case 17   Alpha:  2   Beta:  1
 Number of excitations:        39270
 CPU time [min]:   219.618                   Wall time [min]:     8.116
 ======================================================================
 Spin case 18   Alpha:  2   Beta:  1
 Number of excitations:        20351
 CPU time [min]:   219.818                   Wall time [min]:     8.122
 ======================================================================
 Spin case 19   Alpha:  0   Beta:  3
 Number of excitations:        10439
 CPU time [min]:   220.062                   Wall time [min]:     8.130
 ======================================================================
 Spin case 20   Alpha:  1   Beta:  2
 Number of excitations:        30109
 CPU time [min]:   220.320                   Wall time [min]:     8.137
 ======================================================================
 Spin case 21   Alpha:  1   Beta:  2
 Number of excitations:        39742
 CPU time [min]:   220.702                   Wall time [min]:     8.148
 ======================================================================
 Spin case 22   Alpha:  1   Beta:  2
 Number of excitations:        64868
 CPU time [min]:   221.166                   Wall time [min]:     8.161
 ======================================================================
 Spin case 23   Alpha:  1   Beta:  2
 Number of excitations:        84568
 CPU time [min]:   221.746                   Wall time [min]:     8.179
 ======================================================================
 Spin case 24   Alpha:  2   Beta:  1
 Number of excitations:        242172
 CPU time [min]:   222.378                   Wall time [min]:     8.197
 ======================================================================
 Spin case 25   Alpha:  2   Beta:  1
 Number of excitations:        19940
 CPU time [min]:   222.726                   Wall time [min]:     8.208
 ======================================================================
 Spin case 26   Alpha:  2   Beta:  1
 Number of excitations:        124893
 CPU time [min]:   223.127                   Wall time [min]:     8.219
 ======================================================================
 Spin case 27   Alpha:  2   Beta:  1
 Number of excitations:        10293
 CPU time [min]:   223.352                   Wall time [min]:     8.226
 ======================================================================
 Spin case 28   Alpha:  3   Beta:  0
 Number of excitations:        29264
 CPU time [min]:   223.633                   Wall time [min]:     8.234
 ======================================================================
 Spin case 29   Alpha:  1   Beta:  2
 Number of excitations:        60492
 CPU time [min]:   223.979                   Wall time [min]:     8.245
 ======================================================================
 Spin case 30   Alpha:  1   Beta:  2
 Number of excitations:        130380
 CPU time [min]:   224.533                   Wall time [min]:     8.261
 ======================================================================
 Spin case 31   Alpha:  2   Beta:  1
 Number of excitations:        124362
 CPU time [min]:   224.942                   Wall time [min]:     8.274
 ======================================================================
 Spin case 32   Alpha:  2   Beta:  1
 Number of excitations:        121818
 CPU time [min]:   225.480                   Wall time [min]:     8.289
 ======================================================================
 Spin case 33   Alpha:  2   Beta:  1
 Number of excitations:        63666
 CPU time [min]:   225.737                   Wall time [min]:     8.297
 ======================================================================
 Spin case 34   Alpha:  2   Beta:  1
 Number of excitations:        62657
 CPU time [min]:   226.072                   Wall time [min]:     8.307
 ======================================================================
 Spin case 35   Alpha:  3   Beta:  0
 Number of excitations:        59390
 CPU time [min]:   226.358                   Wall time [min]:     8.315
 ======================================================================
 Spin case 36   Alpha:  2   Beta:  1
 Number of excitations:        61874
 CPU time [min]:   226.692                   Wall time [min]:     8.325
 ======================================================================
 Spin case 37   Alpha:  2   Beta:  1
 Number of excitations:        31759
 CPU time [min]:   226.910                   Wall time [min]:     8.331
 ======================================================================
 Spin case 38   Alpha:  3   Beta:  0
 Number of excitations:        10045
 CPU time [min]:   227.068                   Wall time [min]:     8.335
 ======================================================================
 Spin case 39   Alpha:  1   Beta:  2
 Number of excitations:        28080
 CPU time [min]:   227.401                   Wall time [min]:     8.345
 ======================================================================
 Spin case 40   Alpha:  1   Beta:  2
 Number of excitations:        14448
 CPU time [min]:   227.591                   Wall time [min]:     8.350
 ======================================================================
 Spin case 41   Alpha:  2   Beta:  1
 Number of excitations:        13014
 CPU time [min]:   227.780                   Wall time [min]:     8.355
 ======================================================================
 Spin case 42   Alpha:  2   Beta:  1
 Number of excitations:        27554
 CPU time [min]:   228.083                   Wall time [min]:     8.364
 ======================================================================
 Spin case 43   Alpha:  0   Beta:  3
 Number of excitations:        7453
 CPU time [min]:   228.294                   Wall time [min]:     8.370
 ======================================================================
 Spin case 44   Alpha:  1   Beta:  2
 Number of excitations:        44183
 CPU time [min]:   228.651                   Wall time [min]:     8.380
 ======================================================================
 Spin case 45   Alpha:  1   Beta:  2
 Number of excitations:        57288
 CPU time [min]:   229.142                   Wall time [min]:     8.393
 ======================================================================
 Spin case 46   Alpha:  1   Beta:  2
 Number of excitations:        22587
 CPU time [min]:   229.361                   Wall time [min]:     8.400
 ======================================================================
 Spin case 47   Alpha:  1   Beta:  2
 Number of excitations:        29346
 CPU time [min]:   229.659                   Wall time [min]:     8.408
 ======================================================================
 Spin case 48   Alpha:  2   Beta:  1
 Number of excitations:        80073
 CPU time [min]:   229.975                   Wall time [min]:     8.418
 ======================================================================
 Spin case 49   Alpha:  2   Beta:  1
 Number of excitations:        6604
 CPU time [min]:   230.320                   Wall time [min]:     8.428
 ======================================================================
 Spin case 50   Alpha:  2   Beta:  1
 Number of excitations:        171852
 CPU time [min]:   230.947                   Wall time [min]:     8.448
 ======================================================================
 Spin case 51   Alpha:  2   Beta:  1
 Number of excitations:        14036
 CPU time [min]:   231.200                   Wall time [min]:     8.457
 ======================================================================
 Spin case 52   Alpha:  3   Beta:  0
 Number of excitations:        19551
 CPU time [min]:   231.395                   Wall time [min]:     8.464
 ======================================================================
 Spin case 53   Alpha:  1   Beta:  2
 Number of excitations:        88956
 CPU time [min]:   231.793                   Wall time [min]:     8.478
 ======================================================================
 Spin case 54   Alpha:  1   Beta:  2
 Number of excitations:        45282
 CPU time [min]:   232.063                   Wall time [min]:     8.488
 ======================================================================
 Spin case 55   Alpha:  2   Beta:  1
 Number of excitations:        41031
 CPU time [min]:   232.257                   Wall time [min]:     8.495
 ======================================================================
 Spin case 56   Alpha:  2   Beta:  1
 Number of excitations:        40260
 CPU time [min]:   232.525                   Wall time [min]:     8.505
 ======================================================================
 Spin case 57   Alpha:  2   Beta:  1
 Number of excitations:        89214
 CPU time [min]:   232.876                   Wall time [min]:     8.518
 ======================================================================
 Spin case 58   Alpha:  2   Beta:  1
 Number of excitations:        86410
 CPU time [min]:   233.282                   Wall time [min]:     8.533
 ======================================================================
 Spin case 59   Alpha:  3   Beta:  0
 Number of excitations:        39854
 CPU time [min]:   233.490                   Wall time [min]:     8.540
 ======================================================================
 Spin case 60   Alpha:  2   Beta:  1
 Number of excitations:        20428
 CPU time [min]:   233.635                   Wall time [min]:     8.545
 ======================================================================
 Spin case 61   Alpha:  2   Beta:  1
 Number of excitations:        44342
 CPU time [min]:   233.878                   Wall time [min]:     8.554
 ======================================================================
 Spin case 62   Alpha:  3   Beta:  0
 Number of excitations:        6783
 CPU time [min]:   233.986                   Wall time [min]:     8.558
 ======================================================================
 Spin case 63   Alpha:  1   Beta:  2
 Number of excitations:        9813
 CPU time [min]:   234.111                   Wall time [min]:     8.562
 ======================================================================
 Spin case 64   Alpha:  2   Beta:  1
 Number of excitations:        9130
 CPU time [min]:   234.228                   Wall time [min]:     8.566
 ======================================================================
 Spin case 65   Alpha:  0   Beta:  3
 Number of excitations:        1679
 CPU time [min]:   234.304                   Wall time [min]:     8.569
 ======================================================================
 Spin case 66   Alpha:  1   Beta:  2
 Number of excitations:        15375
 CPU time [min]:   234.457                   Wall time [min]:     8.574
 ======================================================================
 Spin case 67   Alpha:  1   Beta:  2
 Number of excitations:        19886
 CPU time [min]:   234.662                   Wall time [min]:     8.581
 ======================================================================
 Spin case 68   Alpha:  2   Beta:  1
 Number of excitations:        56883
 CPU time [min]:   234.892                   Wall time [min]:     8.588
 ======================================================================
 Spin case 69   Alpha:  2   Beta:  1
 Number of excitations:        4659
 CPU time [min]:   235.024                   Wall time [min]:     8.593
 ======================================================================
 Spin case 70   Alpha:  3   Beta:  0
 Number of excitations:        4284
 CPU time [min]:   235.112                   Wall time [min]:     8.595
 ======================================================================
 Spin case 71   Alpha:  1   Beta:  2
 Number of excitations:        30903
 CPU time [min]:   235.322                   Wall time [min]:     8.602
 ======================================================================
 Spin case 72   Alpha:  2   Beta:  1
 Number of excitations:        29379
 CPU time [min]:   235.474                   Wall time [min]:     8.607
 ======================================================================
 Spin case 73   Alpha:  2   Beta:  1
 Number of excitations:        28588
 CPU time [min]:   235.693                   Wall time [min]:     8.614
 ======================================================================
 Spin case 74   Alpha:  3   Beta:  0
 Number of excitations:        8648
 CPU time [min]:   235.787                   Wall time [min]:     8.617
 ======================================================================
 Spin case 75   Alpha:  2   Beta:  1
 Number of excitations:        14624
 CPU time [min]:   235.919                   Wall time [min]:     8.621
 ======================================================================
 Spin case 76   Alpha:  3   Beta:  0
 Number of excitations:        1436
 CPU time [min]:   235.973                   Wall time [min]:     8.623
 ======================================================================
 Number of 3-fold excitations: 3491644


 CPU time [min]:   235.976                   Wall time [min]:     8.623

 Total CCSD[T] energy [au]:                   -75.056432570218
 Total CCSD(T) energy [au]:                   -75.053445074267

 Dominant cluster amplitudes
 Printing threshold:  1.00E-02

    1.000000  Reference determinant
   -0.010688  2a -> 26a
    0.023277  2a -> 30a
    0.015293  2a -> 55a
    0.015771  3a -> 6a
    0.011423  3a -> 23a
    0.012161  3a -> 48a
   -0.023148  2b -> 14b
    0.011050  2b -> 18b
   -0.032325  2b -> 26b
    0.012675  2b -> 30b
   -0.015768  2b -> 51b
   -0.739466  3b -> 6b
   -0.262009  3b -> 15b
   -0.059448  3b -> 31b
   -0.010900  4a -> 16a
   -0.011226  4a -> 32a
   -0.022499  5a -> 9a
   -0.035979  5a -> 17a
    0.011989  5a -> 25a
   -0.015804  5a -> 33a
    0.013154  5a -> 50a
    0.013281  2a 2b -> 18a 18b
    0.013296  3a 3b -> 18a 18b
   -0.017707  3a 3b -> 26a 30b
   -0.010512  3a 3b -> 51a 55b
   -0.017795  3a 3b -> 29a 29b
   -0.010495  3a 3b -> 54a 54b
   -0.017767  3a 3b -> 27a 27b
   -0.010518  3a 3b -> 52a 52b
   -0.014309  3a 3b -> 6a 6b
   -0.024426  3a 3b -> 15a 6b
   -0.010244  3a 3b -> 31a 6b
   -0.024700  3a 3b -> 6a 15b
   -0.047485  3a 3b -> 15a 15b
   -0.025520  3a 3b -> 31a 15b
   -0.011184  3a 3b -> 6a 31b
   -0.026347  3a 3b -> 15a 31b
   -0.025299  3a 3b -> 31a 31b
    0.014517  2a 2b -> 17a 5b
    0.010955  3a 3b -> 17a 5b
   -0.012282  2a 3b -> 18a 6b
   -0.015903  2a 3b -> 8a 15b
   -0.025952  2a 3b -> 18a 15b
   -0.013050  2a 3b -> 43a 15b
   -0.017205  2a 3b -> 18a 31b
   -0.014690  2a 3b -> 43a 31b
   -0.014977  2a 3b -> 29a 5b
   -0.010772  2a 3b -> 54a 5b
   -0.013082  3a 2b -> 13a 5b
   -0.026093  3a 2b -> 29a 5b
   -0.016508  3a 2b -> 54a 5b
   -0.010399  2a 3b -> 27a 4b
   -0.017724  3a 2b -> 27a 4b
   -0.010396  3a 2b -> 52a 4b
    0.017068  3a 2b -> 27a 7b
    0.010706  3a 2b -> 52a 7b
    0.010201  3a 2b -> 27a 16b
    0.010644  2a 3b -> 15a 18b
    0.016641  3a 2b -> 15a 18b
    0.012458  3a 2b -> 31a 18b
   -0.010974  3a 2b -> 31a 43b
   -0.015733  3a 5a -> 15a 17a
   -0.011895  3a 5a -> 29a 30a
    0.010683  3a 5a -> 17a 31a
   -0.011410  3a 5a -> 15a 33a
   -0.011178  3a 5a -> 31a 33a
   -0.015593  3a 4a -> 15a 16a
   -0.013926  3a 4a -> 26a 27a
    0.010683  3a 4a -> 16a 31a
   -0.011212  3a 4a -> 15a 32a
   -0.011067  3a 4a -> 31a 32a
   -0.012213  2b 3b -> 5b 13b
   -0.014154  2b 3b -> 15b 18b
   -0.011996  2b 3b -> 4b 27b
    0.011561  2b 3b -> 7b 27b
   -0.017628  2b 3b -> 5b 29b
   -0.012560  5a 3b -> 30a 29b
   -0.012383  5a 3b -> 28a 27b
   -0.012330  5a 3b -> 29a 30b
    0.015347  5a 3b -> 6a 5b
    0.017776  5a 3b -> 15a 5b
   -0.018300  5a 3b -> 17a 6b
   -0.016121  5a 3b -> 9a 15b
   -0.034166  5a 3b -> 17a 15b
   -0.020191  5a 3b -> 33a 15b
   -0.018848  5a 3b -> 17a 31b
   -0.018268  5a 3b -> 33a 31b
   -0.012347  4a 3b -> 28a 29b
    0.010441  4a 3b -> 15a 4b
   -0.011530  4a 3b -> 15a 7b
   -0.010853  4a 3b -> 15a 16b
   -0.018034  4a 3b -> 16a 6b
   -0.016535  4a 3b -> 7a 15b
   -0.033855  4a 3b -> 16a 15b
   -0.019837  4a 3b -> 32a 15b
   -0.018854  4a 3b -> 16a 31b
   -0.018115  4a 3b -> 32a 31b
    0.017841  4a 2b -> 26a 4b
    0.010891  4a 2b -> 30a 4b
    0.010416  4a 2b -> 51a 4b
   -0.017190  4a 2b -> 26a 7b
   -0.010502  4a 2b -> 30a 7b
   -0.010713  4a 2b -> 51a 7b
   -0.010558  4a 2b -> 18a 16b
   -0.010343  4a 2b -> 26a 16b
   -0.013455  4a 2b -> 12a 5b
   -0.026921  4a 2b -> 28a 5b
   -0.016899  4a 2b -> 53a 5b
[...]
    0.010878  3a 5a -> 17a 31a
   -0.011743  3a 5a -> 15a 33a
   -0.011338  3a 5a -> 31a 33a
   -0.017282  3a 4a -> 15a 16a
   -0.014596  3a 4a -> 26a 27a
    0.010886  3a 4a -> 16a 31a
   -0.011528  3a 4a -> 15a 32a
   -0.011219  3a 4a -> 31a 32a
   -0.013389  2b 3b -> 5b 13b
   -0.015006  2b 3b -> 15b 18b
   -0.012720  2b 3b -> 4b 27b
    0.012214  2b 3b -> 7b 27b
   -0.018582  2b 3b -> 5b 29b
   -0.012934  5a 3b -> 30a 29b
   -0.012751  5a 3b -> 28a 27b
   -0.012753  5a 3b -> 29a 30b
    0.018997  5a 3b -> 6a 5b
    0.019846  5a 3b -> 15a 5b
   -0.010841  5a 3b -> 9a 6b
   -0.019755  5a 3b -> 17a 6b
   -0.017452  5a 3b -> 9a 15b
   -0.035996  5a 3b -> 17a 15b
   -0.020659  5a 3b -> 33a 15b
   -0.019267  5a 3b -> 17a 31b
   -0.018725  5a 3b -> 33a 31b
   -0.012727  4a 3b -> 28a 29b
    0.012330  4a 3b -> 6a 4b
    0.011991  4a 3b -> 15a 4b
   -0.012367  4a 3b -> 6a 7b
   -0.012999  4a 3b -> 15a 7b
   -0.011710  4a 3b -> 15a 16b
   -0.011099  4a 3b -> 7a 6b
   -0.019532  4a 3b -> 16a 6b
   -0.017975  4a 3b -> 7a 15b
   -0.035732  4a 3b -> 16a 15b
   -0.020272  4a 3b -> 32a 15b
   -0.019272  4a 3b -> 16a 31b
   -0.018546  4a 3b -> 32a 31b
    0.010522  4a 2b -> 10a 4b
    0.018669  4a 2b -> 26a 4b
    0.011404  4a 2b -> 30a 4b
    0.010538  4a 2b -> 51a 4b
   -0.017909  4a 2b -> 26a 7b
   -0.010945  4a 2b -> 30a 7b
   -0.010847  4a 2b -> 51a 7b
   -0.010974  4a 2b -> 18a 16b
   -0.010608  4a 2b -> 26a 16b
   -0.014639  4a 2b -> 12a 5b
   -0.028030  4a 2b -> 28a 5b
   -0.017110  4a 2b -> 53a 5b
   -0.010433  4a 2b -> 16a 8b
    0.017095  4a 2b -> 16a 18b
    0.012704  4a 2b -> 32a 18b
   -0.011151  4a 2b -> 32a 43b
    0.012559  5a 2b -> 8a 5b
   -0.016836  5a 2b -> 14a 5b
    0.013846  5a 2b -> 18a 5b
   -0.031937  5a 2b -> 30a 5b
   -0.019801  5a 2b -> 55a 5b
   -0.010431  5a 2b -> 12a 4b
   -0.019195  5a 2b -> 28a 4b
   -0.010912  5a 2b -> 53a 4b
    0.018398  5a 2b -> 28a 7b
    0.011216  5a 2b -> 53a 7b
    0.010874  5a 2b -> 28a 16b
   -0.010525  5a 2b -> 17a 8b
    0.017210  5a 2b -> 17a 18b
    0.012896  5a 2b -> 33a 18b
   -0.011285  5a 2b -> 33a 43b
   -0.017199  4a 5a -> 16a 17a
   -0.012113  4a 5a -> 28a 30a
    0.011483  4a 5a -> 17a 32a
   -0.011701  4a 5a -> 16a 33a
   -0.011740  4a 5a -> 32a 33a

 ************************ 2025-01-30 13:37:13 *************************
 Executing goldstone...

 Generation of MRCC equations in terms of H and T...
 Generation of antisymmetrized Goldstone diagrams...
 Number of diagrams in T^1 equations:    15
 Number of diagrams in T^2 equations:    38
 Number of diagrams in T^3 equations:    54
 Number of diagrams in T^4 equations:    77
 Number of diagrams in T^5 equations:     8
 Translation of diagrams to factorized equations...
 Number of restricted diagrams in T^1 equations:    440
 Number of restricted diagrams in T^2 equations:   3313
 Number of restricted diagrams in T^3 equations:  14852
 Number of restricted diagrams in T^4 equations:  51548
 Number of restricted diagrams in T^5 equations:   7248
 Optimizing intermediate calculation...
 Number of floating-point operations per iteration step:   9.4845E+13
 Probable CPU time per iteration step (hours):          948.45
 Required memory (Mbytes):         25943.8
 Number of intermediates:                               10574
 Number of intermediates to be stored:                   4264
 Length of intermediate file (Mbytes):         40352.1

 ************************ 2025-01-30 13:37:44 *************************
 Executing xmrcc...

 **********************************************************************
 MRCC(                     5 ) calculation


 Allocation of      1996800.0 Mbytes of memory...
 Number of spinorbitals:                   218
 Number of alpha electrons:                        5
 Number of beta electrons:                         3
 Number of active particles:                   124
 Number of active holes:                         4
 Spin multiplicity:                     2
 z-component of spin:  1.0
 Spatial symmetry:                      2
 Convergence criterion:  1.0E-10
 Construction of occupation graphs...
 Number of                     0 -fold excitations:                      1
 Number of                     1 -fold excitations:                    160
 Number of                     2 -fold excitations:                  31675
 Number of                     3 -fold excitations:                3491644
 Number of                     4 -fold excitations:              199604301
 Total number of configurations:              203127781
 Calculation of coupling coefficients...
 Length of intermediate file (Mbytes):         25514.4

 ======================================================================

 Spin case  1   Alpha:  2   Beta:  3
 Number of excitations:                8939099
 Spin case  2   Alpha:  3   Beta:  2
 Number of excitations:               26818554
 Spin case  3   Alpha:  2   Beta:  3
 Number of excitations:               53634296
 Spin case  4   Alpha:  3   Beta:  2
 Number of excitations:               53637044
 Spin case  5   Alpha:  3   Beta:  2
 Number of excitations:               53637342
 Spin case  6   Alpha:  4   Beta:  1
 Number of excitations:               25957479
 Spin case  7   Alpha:  2   Beta:  3
 Number of excitations:               26819275
 Spin case  8   Alpha:  3   Beta:  2
 Number of excitations:                8941330
 Spin case  9   Alpha:  3   Beta:  2
 Number of excitations:              107273640
 Spin case 10   Alpha:  4   Beta:  1
 Number of excitations:               17293195
 Spin case 11   Alpha:  4   Beta:  1
 Number of excitations:               12981131
 Spin case 12   Alpha:  5   Beta:  0
 Number of excitations:                 810230
 Spin case 13   Alpha:  3   Beta:  2
 Number of excitations:               17880626
 Spin case 14   Alpha:  4   Beta:  1
 Number of excitations:                8649273
 Spin case 15   Alpha:  2   Beta:  3
 Number of excitations:               12306700
 Spin case 16   Alpha:  2   Beta:  3
 Number of excitations:               19646879
 Spin case 17   Alpha:  3   Beta:  2
 Number of excitations:               56278801
 Spin case 18   Alpha:  3   Beta:  2
 Number of excitations:               38685420
 Spin case 19   Alpha:  2   Beta:  3
 Number of excitations:               73855876
 Spin case 20   Alpha:  2   Beta:  3
 Number of excitations:              117983351
 Spin case 21   Alpha:  3   Beta:  2
 Number of excitations:              112658153
 Spin case 22   Alpha:  3   Beta:  2
 Number of excitations:              112576476
 Spin case 23   Alpha:  3   Beta:  2
 Number of excitations:               77380644
 Spin case 24   Alpha:  3   Beta:  2
 Number of excitations:               77372664
 Spin case 25   Alpha:  4   Beta:  1
 Number of excitations:               73855908
 Spin case 26   Alpha:  4   Beta:  1
 Number of excitations:               18427179
 Spin case 27   Alpha:  2   Beta:  3
 Number of excitations:               36932696
 Spin case 28   Alpha:  2   Beta:  3
 Number of excitations:               59047803
 Spin case 29   Alpha:  3   Beta:  2
 Number of excitations:               18794761
 Spin case 30   Alpha:  3   Beta:  2
 Number of excitations:              225277806
 Spin case 31   Alpha:  3   Beta:  2
 Number of excitations:               12898648
 Spin case 32   Alpha:  3   Beta:  2
 Number of excitations:              154759440
 Spin case 33   Alpha:  4   Beta:  1
 Number of excitations:               49241640
 Spin case 34   Alpha:  4   Beta:  1
 Number of excitations:               36926832
 Spin case 35   Alpha:  4   Beta:  1
 Number of excitations:               12272185
 Spin case 36   Alpha:  4   Beta:  1
 Number of excitations:                9215095
 Spin case 37   Alpha:  5   Beta:  0
 Number of excitations:                2932754
 Spin case 38   Alpha:  3   Beta:  2
 Number of excitations:               37568908
 Spin case 39   Alpha:  3   Beta:  2
 Number of excitations:               25795592
 Spin case 40   Alpha:  4   Beta:  1
 Number of excitations:               24620316
 Spin case 41   Alpha:  4   Beta:  1
 Number of excitations:                6139131
 Spin case 42   Alpha:  2   Beta:  3
 Number of excitations:                4069387
 Spin case 43   Alpha:  2   Beta:  3
 Number of excitations:               27029528
 Spin case 44   Alpha:  2   Beta:  3
 Number of excitations:               13844096
 Spin case 45   Alpha:  3   Beta:  2
 Number of excitations:               37817452
 Spin case 46   Alpha:  3   Beta:  2
 Number of excitations:               81127963
 Spin case 47   Alpha:  3   Beta:  2
 Number of excitations:               13415502
 Spin case 48   Alpha:  2   Beta:  3
 Number of excitations:               24420298
 Spin case 49   Alpha:  2   Beta:  3
 Number of excitations:              162448450
 Spin case 50   Alpha:  2   Beta:  3
 Number of excitations:               83169229
 Spin case 51   Alpha:  3   Beta:  2
 Number of excitations:               75725030
 Spin case 52   Alpha:  3   Beta:  2
 Number of excitations:               75652071
 Spin case 53   Alpha:  3   Beta:  2
 Number of excitations:              162535776
 Spin case 54   Alpha:  3   Beta:  2
 Number of excitations:              162294804
 Spin case 55   Alpha:  3   Beta:  2
 Number of excitations:               26832040
 Spin case 56   Alpha:  3   Beta:  2
 Number of excitations:               26831544
 Spin case 57   Alpha:  4   Beta:  1
 Number of excitations:               75642390
 Spin case 58   Alpha:  4   Beta:  1
 Number of excitations:               52411788
 Spin case 59   Alpha:  2   Beta:  3
 Number of excitations:               12211745
 Spin case 60   Alpha:  2   Beta:  3
 Number of excitations:               81359650
 Spin case 61   Alpha:  2   Beta:  3
 Number of excitations:               41638661
 Spin case 62   Alpha:  3   Beta:  2
 Number of excitations:               12637110
 Spin case 63   Alpha:  3   Beta:  2
 Number of excitations:              151416276
 Spin case 64   Alpha:  3   Beta:  2
 Number of excitations:               27136051
 Spin case 65   Alpha:  3   Beta:  2
 Number of excitations:              324994824
 Spin case 66   Alpha:  3   Beta:  2
 Number of excitations:                4473586
 Spin case 67   Alpha:  3   Beta:  2
 Number of excitations:               53664780
 Spin case 68   Alpha:  4   Beta:  1
 Number of excitations:               50472681
 Spin case 69   Alpha:  4   Beta:  1
 Number of excitations:               37814684
 Spin case 70   Alpha:  4   Beta:  1
 Number of excitations:               34945800
 Spin case 71   Alpha:  4   Beta:  1
 Number of excitations:               26205440
 Spin case 72   Alpha:  5   Beta:  0
 Number of excitations:                4070042
 Spin case 73   Alpha:  3   Beta:  2
 Number of excitations:               25255913
 Spin case 74   Alpha:  3   Beta:  2
 Number of excitations:               54233340
 Spin case 75   Alpha:  3   Beta:  2
 Number of excitations:                8945612
 Spin case 76   Alpha:  4   Beta:  1
 Number of excitations:               25222302
 Spin case 77   Alpha:  4   Beta:  1
 Number of excitations:               17471612
 Spin case 78   Alpha:  2   Beta:  3
 Number of excitations:                8939247
 Spin case 79   Alpha:  2   Beta:  3
 Number of excitations:               19039954
 Spin case 80   Alpha:  2   Beta:  3
 Number of excitations:                3129272
 Spin case 81   Alpha:  3   Beta:  2
 Number of excitations:                8139532
 Spin case 82   Alpha:  3   Beta:  2
 Number of excitations:               54502472
 Spin case 83   Alpha:  3   Beta:  2
 Number of excitations:               28132432
 Spin case 84   Alpha:  2   Beta:  3
 Number of excitations:               53713174
 Spin case 85   Alpha:  2   Beta:  3
 Number of excitations:              114514956
 Spin case 86   Alpha:  2   Beta:  3
 Number of excitations:               18782120
 Spin case 87   Alpha:  3   Beta:  2
 Number of excitations:               16281784
 Spin case 88   Alpha:  3   Beta:  2
 Number of excitations:               16279200
 Spin case 89   Alpha:  3   Beta:  2
 Number of excitations:              109253454
 Spin case 90   Alpha:  3   Beta:  2
 Number of excitations:              109039644
 Spin case 91   Alpha:  3   Beta:  2
 Number of excitations:               56358709
 Spin case 92   Alpha:  3   Beta:  2
 Number of excitations:               56274801
 Spin case 93   Alpha:  4   Beta:  1
 Number of excitations:               33085920
 Spin case 94   Alpha:  4   Beta:  1
 Number of excitations:               53663178
 Spin case 95   Alpha:  2   Beta:  3
 Number of excitations:               26899098
 Spin case 96   Alpha:  2   Beta:  3
 Number of excitations:               57392614
 Spin case 97   Alpha:  2   Beta:  3
 Number of excitations:                9397443
 Spin case 98   Alpha:  3   Beta:  2
 Number of excitations:                2714948
 Spin case 99   Alpha:  3   Beta:  2
 Number of excitations:               32561160
 Spin case100   Alpha:  3   Beta:  2
 Number of excitations:               18250562
 Spin case101   Alpha:  3   Beta:  2
 Number of excitations:              218439144
 Spin case102   Alpha:  3   Beta:  2
 Number of excitations:                9409921
 Spin case103   Alpha:  3   Beta:  2
 Number of excitations:              112698078
 Spin case104   Alpha:  4   Beta:  1
 Number of excitations:               22064560
 Spin case105   Alpha:  4   Beta:  1
 Number of excitations:               16541280
 Spin case106   Alpha:  4   Beta:  1
 Number of excitations:               35818771
 Spin case107   Alpha:  4   Beta:  1
 Number of excitations:               26826815
 Spin case108   Alpha:  5   Beta:  0
 Number of excitations:                2712844
 Spin case109   Alpha:  3   Beta:  2
 Number of excitations:                5428560
 Spin case110   Alpha:  3   Beta:  2
 Number of excitations:               36466500
 Spin case111   Alpha:  3   Beta:  2
 Number of excitations:               18808919
 Spin case112   Alpha:  4   Beta:  1
 Number of excitations:               11031120
 Spin case113   Alpha:  4   Beta:  1
 Number of excitations:               17899258
 Spin case114   Alpha:  2   Beta:  3
 Number of excitations:                6296945
 Spin case115   Alpha:  2   Beta:  3
 Number of excitations:                4306642
 Spin case116   Alpha:  3   Beta:  2
 Number of excitations:               11738128
 Spin case117   Alpha:  3   Beta:  2
 Number of excitations:               18899187
 Spin case118   Alpha:  2   Beta:  3
 Number of excitations:               37864719
 Spin case119   Alpha:  2   Beta:  3
 Number of excitations:               25864062
 Spin case120   Alpha:  3   Beta:  2
 Number of excitations:               23490216
 Spin case121   Alpha:  3   Beta:  2
 Number of excitations:               23478000
 Spin case122   Alpha:  3   Beta:  2
 Number of excitations:               37882234
 Spin case123   Alpha:  3   Beta:  2
 Number of excitations:               37807626
 Spin case124   Alpha:  4   Beta:  1
 Number of excitations:                5212350
 Spin case125   Alpha:  4   Beta:  1
 Number of excitations:               23477040
 Spin case126   Alpha:  2   Beta:  3
 Number of excitations:               18973484
 Spin case127   Alpha:  2   Beta:  3
 Number of excitations:               12944488
 Spin case128   Alpha:  3   Beta:  2
 Number of excitations:                3917192
 Spin case129   Alpha:  3   Beta:  2
 Number of excitations:               46976160
 Spin case130   Alpha:  3   Beta:  2
 Number of excitations:                6328711
 Spin case131   Alpha:  3   Beta:  2
 Number of excitations:               75747918
 Spin case132   Alpha:  4   Beta:  1
 Number of excitations:                3469830
 Spin case133   Alpha:  4   Beta:  1
 Number of excitations:                2606954
 Spin case134   Alpha:  4   Beta:  1
 Number of excitations:               15658800
 Spin case135   Alpha:  4   Beta:  1
 Number of excitations:               11737800
 Spin case136   Alpha:  5   Beta:  0
 Number of excitations:                 869560
 Spin case137   Alpha:  3   Beta:  2
 Number of excitations:                7832720
 Spin case138   Alpha:  3   Beta:  2
 Number of excitations:               12647524
 Spin case139   Alpha:  4   Beta:  1
 Number of excitations:                1736562
 Spin case140   Alpha:  4   Beta:  1
 Number of excitations:                7827360
 Spin case141   Alpha:  2   Beta:  3
 Number of excitations:                1424495
 Spin case142   Alpha:  3   Beta:  2
 Number of excitations:                4071040
 Spin case143   Alpha:  2   Beta:  3
 Number of excitations:                8551221
 Spin case144   Alpha:  3   Beta:  2
 Number of excitations:                8145320
 Spin case145   Alpha:  3   Beta:  2
 Number of excitations:                8141880
 Spin case146   Alpha:  4   Beta:  1
 Number of excitations:                3701550
 Spin case147   Alpha:  2   Beta:  3
 Number of excitations:                4280327
 Spin case148   Alpha:  3   Beta:  2
 Number of excitations:                1358480
 Spin case149   Alpha:  3   Beta:  2
 Number of excitations:               16288920
 Spin case150   Alpha:  4   Beta:  1
 Number of excitations:                2462290
 Spin case151   Alpha:  4   Beta:  1
 Number of excitations:                1851502
 Spin case152   Alpha:  5   Beta:  0
 Number of excitations:                 107020
 Spin case153   Alpha:  3   Beta:  2
 Number of excitations:                2716480
 Spin case154   Alpha:  4   Beta:  1
 Number of excitations:                1232286
 Number of                     5 -fold excitations:             6016578096

 Memory requirements /Mbyte/:
               Minimal        Optimal
 Real*8:      59111.2258     59111.2258
 Integer:     58697.4667
 Total:      117808.6925    117808.6925


 ************************ 2025-01-30 15:06:52 *************************
 Executing mrcc...

 **********************************************************************
 CCSDTQ(P) calculation


 OpenMP parallel version is running.
 Number of CPU cores:  36
 Allocation of        59111.2 Mbytes of memory...
 Number of spinorbitals: 218
 Number of alpha electrons:  5
 Number of beta  electrons:  3
 Number of active particles:                   124
 Number of active holes:                         4
 Spin multiplicity: 3
 z-component of spin:  1.0
 Spatial symmetry: 2
 Convergence criterion:  1.0E-10
 Construction of occupation graphs...
 Number of 0-fold excitations: 1
 Number of 1-fold excitations: 160
 Number of 2-fold excitations: 31675
 Number of 3-fold excitations: 3491644
 Number of 4-fold excitations: 199604301
 Total number of determinants: 203127781
 Calculation of coupling coefficients...
 Initial cluster amplitudes are read from unit 16.
 Length of intermediate file (Mbytes):         25514.4
 Reading integral list from unit 55...
 Sorting integrals...
 Sorting integrals...
 Sorting integrals...
 Sorting integrals...
 Energy of reference determinant [au]:     -74.634409649005
 Calculation of MP denominators...

 Starting CC iteration...
 ======================================================================
 Norm of residual vector:     0.05691019
 CPU time [min]:  5323.312                   Wall time [min]:   203.469

 Iteration  1  CC energy:   -75.05600646  Energy decrease:   4.4054E-13
 ======================================================================
 Norm of residual vector:     0.00807015
 CPU time [min]: 10368.073                   Wall time [min]:   367.958

 Iteration  2  CC energy:   -75.05598717  Energy decrease:   0.00001930
 ======================================================================
 Norm of residual vector:     0.00259511
 CPU time [min]: 15447.527                   Wall time [min]:   535.363

 Iteration  3  CC energy:   -75.05613387  Energy decrease:   0.00014670
 ======================================================================
