 &FCI NORB=  10,NELEC= 6,MS2=0,
  ORBSYM=1,1,1,1,7,6,8,7,6,8
  ISYM=1, UHF=TRUE
 &END
 4.753346160938841    1    1    1    1
 4.759891909298573    2    2    2    2
 4.756617248475678    1    1    2    2
 4.756617248475678    2    2    1    1
 -0.4671466000289837    3    1    1    1
 -0.4547076990710804    4    2    2    2
 -0.46765539359887    3    1    2    2
 -0.4542100167467166    4    2    1    1
 0.07244801978120757    3    1    3    1
 0.06931835129404301    4    2    4    2
 0.07086221478408711    3    1    4    2
 0.07086221478408711    4    2    3    1
 1.112811794980589    3    3    1    1
 1.109682126493424    4    4    2    2
 1.11295678731632    3    3    2    2
 1.109540707443752    4    4    1    1
 -0.02098684359555906    3    3    3    1
 -0.01935499500493113    4    4    4    2
 -0.01985267732929496    3    3    4    2
 -0.02047805002567269    4    4    3    1
 0.7934998537496308    3    3    3    3
 0.7932134423642268    4    4    4    4
 0.7933548614138994    3    3    4    4
 0.7933548614138995    4    4    3    3
 0.02572795272371213    5    1    5    1
 0.02547667654267257    6    2    6    2
 0.03564901530196801    5    3    5    1
 0.03512713160078076    6    4    6    2
 0.1724739659338322    5    3    5    3
 0.1727252421148717    6    4    6    4
 1.115431021524183    5    5    1    1
 1.115521852661333    6    6    2    2
 1.115521852661333    5    5    2    2
 1.115431021524183    6    6    1    1
 -0.0133461203112551    5    5    3    1
 -0.01223799148013491    6    6    4    2
 -0.01223799148013491    5    5    4    2
 -0.0133461203112551    6    6    3    1
 0.8033987989995809    5    5    3    3
 0.8033079678624313    6    6    4    4
 0.8033079678624313    5    5    4    4
 0.8033987989995809    6    6    3    3
 0.880159094519358    5    5    5    5
 0.880159094519358    6    6    6    6
 0.7852702012674082    5    5    6    6
 0.7852702012674082    6    6    5    5
 0.02560122686670711    8    2    5    1
 0.03503646108096433    8    2    5    3
 0.02572795272371213    7    1    7    1
 0.02547667654267257    8    2    8    2
 0.03574013187262896    8    4    5    1
 0.1725994426754233    8    4    5    3
 0.03564901530196801    7    3    7    1
 0.03512713160078076    8    4    8    2
 0.1724739659338322    7    3    7    3
 0.1727252421148717    8    4    8    4
 0.04744444662597526    7    5    7    5
 0.04744444662597525    8    6    8    6
 1.115431021524183    7    7    1    1
 1.115521852661333    8    8    2    2
 1.115521852661333    7    7    2    2
 1.115431021524183    8    8    1    1
 -0.0133461203112551    7    7    3    1
 -0.01223799148013491    8    8    4    2
 -0.01223799148013491    7    7    4    2
 -0.0133461203112551    8    8    3    1
 0.8033987989995809    7    7    3    3
 0.8033079678624313    8    8    4    4
 0.8033079678624313    7    7    4    4
 0.8033987989995809    8    8    3    3
 0.7852702012674082    7    7    5    5
 0.7852702012674082    8    8    6    6
 0.7852702012674082    7    7    6    6
 0.880159094519358    8    8    5    5
 0.880159094519358    7    7    7    7
 0.880159094519358    8    8    8    8
 0.7852702012674082    7    7    8    8
 0.7852702012674082    8    8    7    7
 0.02560122686670711    9    1    6    2
 0.03574013187262896    9    1    6    4
 0.02560122686670711   10    2    7    1
 0.03503646108096433   10    2    7    3
 0.02572795272371213    9    1    9    1
 0.02547667654267257   10    2   10    2
 0.03503646108096432    9    3    6    2
 0.1725994426754233    9    3    6    4
 0.03574013187262896   10    4    7    1
 0.1725994426754233   10    4    7    3
 0.03564901530196801    9    3    9    1
 0.03512713160078076   10    4   10    2
 0.1724739659338322    9    3    9    3
 0.1727252421148717   10    4   10    4
 0.04744444662597525    9    5    8    6
 0.04744444662597525    9    5    9    5
 0.04744444662597525   10    6   10    6
 0.04744444662597526   10    8    7    5
 0.04744444662597525    9    7   10    6
 0.04744444662597525    9    7    9    7
 0.04744444662597526   10    8   10    8
 1.115431021524183    9    9    1    1
 1.115521852661333   10   10    2    2
 1.115521852661333    9    9    2    2
 1.115431021524183   10   10    1    1
 -0.0133461203112551    9    9    3    1
 -0.01223799148013491   10   10    4    2
 -0.01223799148013491    9    9    4    2
 -0.0133461203112551   10   10    3    1
 0.8033987989995809    9    9    3    3
 0.8033079678624313   10   10    4    4
 0.8033079678624313    9    9    4    4
 0.8033987989995809   10   10    3    3
 0.7852702012674082    9    9    5    5
 0.7852702012674082   10   10    6    6
 0.880159094519358    9    9    6    6
 0.7852702012674082   10   10    5    5
 0.7852702012674082    9    9    7    7
 0.7852702012674082   10   10    8    8
 0.7852702012674082    9    9    8    8
 0.880159094519358   10   10    7    7
 0.880159094519358    9    9    9    9
 0.880159094519358   10   10   10   10
 0.7852702012674082    9    9   10   10
 0.7852702012674082   10   10    9    9
 -31.60208662377083    1    1  0  0
 -31.60593749493968    2    2  0  0
 0.5861237148509908    3    1  0  0
 0.4985386770362837    4    2  0  0
 -6.936143974476245    3    3  0  0
 -6.932293103307384    4    4  0  0
 -6.450723439875714    5    5  0  0
 -6.450723439875714    6    6  0  0
 -6.450723439875714    7    7  0  0
 -6.450723439875714    8    8  0  0
 -6.450723439875714    9    9  0  0
 -6.450723439875714   10   10  0  0
 0  0  0  0  0
