 --invoking executable--
/home/jaafar1/projects/def-nike-ab/share/software/cfour-v2.1/bin/xjoda


   *************************************************************************
         <<<     CCCCCC     CCCCCC   |||     CCCCCC     CCCCCC   >>>
       <<<      CCC        CCC       |||    CCC        CCC         >>>
      <<<      CCC        CCC        |||   CCC        CCC            >>>
    <<<        CCC        CCC        |||   CCC        CCC              >>>
      <<<      CCC        CCC        |||   CCC        CCC            >>>
       <<<      CCC        CCC       |||    CCC        CCC         >>>
         <<<     CCCCCC     CCCCCC   |||     CCCCCC     CCCCCC   >>>
   *************************************************************************

     ****************************************************************
     * CFOUR Coupled-Cluster techniques for Computational Chemistry *
     ****************************************************************


   Department of Chemistry                Institut fuer Physikalische Chemie
   University of Florida                  Universitaet Mainz
   Gainesville, FL 32611, USA             D-55099 Mainz, Germany

   Department of Chemistry                Fakultaet fuer Chemie und Biowiss.
   Johns Hopkins University               Karlsruher Institut fuer Technologie
   Baltimore, MD 21218, USA               D-76131 Karlsruhe, Germany

   Department of Chemistry                Department of Physical Chemistry
   Southern Methodist University          Eotvos Lorand University
   Dallas, TX 75275, USA                  H-1053 Budapest, Hungary


                       Version 2.1

                     login1                                            
                     Wed Oct  8 16:35:56 PDT 2025                      
                     integer*8 version is running

********************************************************************************
*                          Input from ZMAT file                                *
********************************************************************************
TITLE                                                                           
Ne                                                                              
                                                                                
*ACES2(CALC=CCSD(T)                                                             
FROZEN_CORE=ON                                                                  
#DROPMO=1                                                                       
INPUT_MRCC=OFF                                                                  
CC_PROG=MRCC                                                                    
XFORM_TOL=18                                                                    
SAVE_INTS=ON                                                                    
SCF_EXPORDER=6                                                                  
SCF_EXPSTART=5                                                                  
#SCF_DAMPING=1000                                                               
SCF_EXTRAPOLATION=ON                                                            
SCF_CONV=13                                                                     
SCF_MAXCYC=9999                                                                 
CC_CONV=10                                                                      
CC_MAXCYC=999                                                                   
T3_EXTRAPOL=ON                                                                  
REFERENCE=RHF                                                                   
CHARGE=+0                                                                       
MULT=1                                                                          
ABCDTYPE=STANDARD                                                               
#OCCUPATION=2-1-1-0-1-0-0-0/2-1-1-0-1-0-0-0                                     
MEM=4                                                                           
MEM_UNIT=GB                                                                     
BASIS=SPECIAL)                                                                  
                                                                                
NE:aVDZ-EMSL                                                                    
                                                                                
********************************************************************************
  @GTFLGS-W, Keyword #DROPMO not known and is ignored.
  @GTFLGS-W, Keyword #SCF_DAMPING not known and is ignored.
  @GTFLGS-W, Keyword #OCCUPATION not known and is ignored.
    -------------------------------------------------------------------
                    CFOUR Control Parameters 
    -------------------------------------------------------------------
        External           Internal           Value            Units
          Name               Name
    -------------------------------------------------------------------
       ABCDTYPE             IABCDT         STANDARD    [  0]    ***   
       ANHARMONIC           IANHAR         OFF         [  0]    ***   
       ANH_ALGORIT          IANALG         STANDARD    [  0]    ***   
       ANH_DERIVAT          IANDER         SECOND      [  1]    ***   
       ANH_MODE             ANHMOD         VIBRATION   [  0]    ***   
       ANH_STEPSIZ          ICUBST             50000          x 10-6  
       ANH_SYMMETR          IANHSM         ABELIAN     [  0]    ***   
       AO_LADDERS           IAOLAD         SINGLEPASS  [  1]    ***   
       AV_SCF               IAVSCF         OFF         [  0]    ***   
       BASIS                IBASIS         SPECIAL     [  0]    ***   
       BOTHVECTORS          BOTHVC         OFF         [  0]    ***   
       BOX_POTENT           IPIAB          OFF         [  0]    ***   
       BREIT                IBREIT         OFF         [  0]    ***   
       BRUCK_CONV           IBRTOL          10D-  4             ***   
       BRUECKNER            IBRKNR         OFF         [  0]    ***   
       BUFFERSIZE           IBUFFS              4096            ***   
       CACHE_RECS           ICHREC             10               ***   
       CALCLEVEL            ICLLVL         CCSD(T)     [ 22]    ***   
       CCORBOPT             ICCORB         OFF         [  0]  x 0.01  
       CC_CONV              ICCCNV          10D- 10             ***   
       CC_EXPORDER          ICCEOR              5               ***   
       CC_EXTRAPOL          ICCEXT         DIIS        [  1]    ***   
       CC_GUESS             ICCGES         MP2         [  0]    ***   
       CC_MAXCYC            ICCCYC            999              cycles 
       CC_PROGRAM           ICCPRO         MRCC        [  2]    ***   
       CHARGE               ICHRGE              0               ***   
       CHOLESKY             ICHOLE         OFF         [  0]    ***   
       CIS_CONV             ICISTL              5               ***   
       COMM_SIZE            IPSIZE            ***               ***   
       CONSTANT             ICONST         OLD         [  1]    ***   
       CONTINUUM            ICONTU         NONE        [  0]    ***   
       CONTRACTION          ICNTYP         GENERAL     [  1]    ***   
       COORDINATES          ICOORD         INTERNAL    [  0]    ***   
       CPHF_CONVER          ICPHFT          10D- 16             ***   
       CPHF_MAXCYC          ICPHFC             64              cycles 
       CUBIC                ICUBIC         OFF         [  0]    ***   
       CURVILINEAR          ICURVY         OFF         [  0]    ***   
       DBOC                 IDBOC          OFF         [  0]    ***   
       DCT                  IDCT           OFF         [  0]    ***   
       DERIV_LEV            IDRLVL         ZERO        [  0]    ***   
       DEVMEM_SIZE          IDVMEM         *********           MByte  
       DIAG_MRCC            IEOMST          10D-  0             ***   
       DIFF_TYPE            IDIFTY         RELAXED     [  0]    ***   
       DIRECT               IDIRCT         OFF         [  0]    ***   
       DROPMO               IDRPMO      NONE         
       ECP                  IECP           OFF         [  0]    ***   
       EIGENVECTOR          IVEC                1               ***   
       EL_ANHARM            IELANH         OFF         [  0]    ***   
       EOMFOLLOW            IEOMSR         ENERGY      [  0]    ***   
       EOMIP                IEOMIP         OFF         [  0]    ***   
       EOMLEVEL             HBARFM         SAME        [  0]    ***   
       EOM_MRCC             IMRCCE         NEW         [  1]    ***   
       EOM_NONIT            EOMNON         OFF         [  0]    ***   
       EOM_NSING            IEOMSI          10D-  0             ***   
       EOM_NSTATES          IMRCCD         DAVIDSON    [  0]    ***   
       EOM_NTRIP            IEOMTR          10D-  0             ***   
       EOM_ORDER            IEXORD         ENERGY      [  0]    ***   
       EOM_PROPSTA          IEOMST              0               ***   
       ESTATE_CONV          IEXTOL          10D-  5             ***   
       ESTATE_DIAG          IEXDIG         ITERATIVE   [  0]    ***   
       ESTATE_LOCK          IESLOC         ON          [  1]    ***   
       ESTATE_MAXC          IEXMXC             40               ***   
       ESTATE_PROP          IEXPRP         OFF         [  0]    ***   
       EVAL_HESS            IRECAL              0            # of cyc.
       EXCITATION           IEXCIT              0               ***   
       EXCITE               IEXCIT         NONE        [  0]    ***   
       EXTERN_POT           IEXPOT         OFF         [  0]    ***   
       FCGRADNEW            IFCGNW         OFF         [  0]    ***   
       FC_FIELD             IFINFC              0             x 10-6  
       FD_CALTYPE           IFDCAL         GRADONLY    [  0]    ***   
       FD_PROJECT           IFDPRJ         OFF         [  1]    ***   
       FD_STEPSIZE          IDISFD              0            10-4 bohr
       FD_USEGROUP          IFDGRP         FULL        [  0]    ***   
       FILE_RECSIZ          IFLREC              4096           words  
       FINITE_PERT          IFIPER              0             x 10-6  
       FIXGEOM              IFIXGM         OFF         [  0]    ***   
       FOCK                 IFOCK          AO          [  1]    ***   
       FREQ_ALGORI          IVIALG         STANDARD    [  0]    ***   
       FROZEN_CORE          IFROCO         ON          [  1]    ***   
       GAMMA_ABCD           IGABCD         STORE       [  0]    ***   
       GAMMA_ABCI           IGABCI         STORE       [  0]    ***   
       GENBAS_1             IGNBS1              0               ***   
       GENBAS_2             IGNBS2              0               ***   
       GENBAS_3             IGNBS3              0               ***   
       GENBAS_4             IGNBS4              0               ***   
       GEO_CONV             ICONTL              5              H/bohr 
       GEO_MAXCYC           IOPTCY             50               ***   
       GEO_MAXSTEP          IMXSTP            300            millibohr
       GEO_METHOD           INR            SINGLE_POINT[  5]    ***   
       GIAO                 IGIAO          OFF         [  1]    ***   
       GIMIC                IGIMIC         OFF         [  0]    ***   
       GRID                 IGRID          OFF         [  0]    ***   
       GRID_ALGO            IGALGO         SERIAL      [  0]    ***   
       GUESS                IGUESS         MOREAD      [  0]    ***   
       HBAR                 IHBAR          OFF         [  0]    ***   
       HESS_TYPE            IHESTP         SCF         [  0]    ***   
       HF2_FILE             IHF2Fl         USE         [  1]    ***   
       HFSTABILITY          ISTABL         OFF         [  0]    ***   
       INCORE               INCORE         OFF         [  0]    ***   
       INPUT_MRCC           IMRCC          OFF         [  0]    ***   
       INTEGRALS            INTTYP         VMOL        [  1]    ***   
       JODA_PRINT           IJPRNT              0               ***   
       KEYWORD_OUT          IDMPKW         NO          [  0]    ***   
       LINDEP_TOL           ILINDP              8               ***   
       LINEQ_CONV           IZTACN          10D-  7           cycles  
       LINEQ_EXPOR          ILMAXD              5               ***   
       LINEQ_MAXCY          ILMAXC            100               ***   
       LINEQ_TYPE           ILTYPE         DIIS        [  1]    ***   
       LOCK_ORBOCC          ILOCOC         OFF         [  0]    ***   
       MEMORY_SIZE          IMEMSZ         500000000           words  
       MEM_UNIT             IMEMU          GB          [  3]    ***   
       MRCC                 IMRCCC         OFF         [  0]    ***   
       MULTIPLICTY          IMULTP              1               ***   
       NACOUPLING           IVCOUP         OFF         [  0]    ***   
       NEGEVAL              IDIE           ABORT       [  0]    ***   
       NEWNORM              INEWNO         OFF         [  0]    ***   
       NON-HF               INONHF         OFF         [  0]    ***   
       NTOP_TAMP            ITOPT2             15               ***   
       NUC_MODEL            INUCMO         POINT       [  0]    ***   
       OCCUPATION           IOCCU   ESTIMATED BY SCF 
       OPEN-SHELL           IOPEN          SPIN-ORBITAL[  0]    ***   
       OPTVIB               IOPTVB         OFF         [  0]    ***   
       ORBITALS             IORBTP         STANDARD    [  0]    ***   
       PARALLEL             IPARAL         ON          [  1]    ***   
       PARA_INT             IPINTS         ON          [  1]    ***   
       PARA_PRINT           IPPRIN              0               ***   
       PERT_ORB             IPTORB         STANDARD    [  0]    ***   
       POINTS               IGRDFD              0               ***   
       PRINT                IPRNT               0               ***   
       PROPS                IPROPS         OFF         [  0]    ***   
       PROP_INTEGR          IINTYP         INTERNAL    [  0]    ***   
       PSI                  IPSI           OFF         [  0]    ***   
       QC_ALG               IQCALG         FLM         [  0]    ***   
       QC_LINALG            IQCLIN         TRIDIAG     [  2]    ***   
       QC_MAXCYC            IQCMAX          10D-100           cycles  
       QC_MAXSCFCY          IQCMSC          10D- 15           cycles  
       QC_RTRUST            IQCRTR          10D-  0           x 10-3  
       QC_SKIPSCF           IQCSKI         OFF         [  0]    ***   
       QC_START             IQCSTA          10D-  1             ***   
       QRHFGUESS            IQGUES         OFF         [  0]    ***   
       QUARTIC              IQUART         OFF         [  0]    ***   
       RAMAN_INT            IRAMIN         OFF         [  0]    ***   
       RAMAN_ORB            IRAMRE         UNRELAXED   [  0]    ***   
       RDO                  IRDOFM         OFF         [  0]    ***   
       REDUCE_REPR          REDREP         Ir          [  0]    ***   
       REFERENCE            IREFNC         RHF         [  0]    ***   
       RELATIVIST           IRELAT         OFF         [  0]    ***   
       RELAX_DENS           IRDENS         OFF         [  0]    ***   
       RESET_FLAGS          IRESET         OFF         [  0]    ***   
       RESTART_CC           ICCRES         OFF         [  0]    ***   
       ROT_EVEC             ROTVEC              0               ***   
       SAVE_INTS            ISVINT         ON          [  1]    ***   
       SCALE_ON             ISTCRT              0               ***   
       SCF_CONV             ISCFCV          10D- 13             ***   
       SCF_DAMPING          IDAMP               0             x 10-3  
       SCF_EXPORDE          IRPPOR              6               ***   
       SCF_EXPSTAR          IRPPLS              5               ***   
       SCF_EXTRAPO          IRPP           ON          [  1]    ***   
       SCF_MAXCYC           ISCFCY            ***              cycles 
       SCF_NOSTOP           ISCFST         OFF         [  0]    ***   
       SCF_PRINT            ISCFPR              0               ***   
       SCF_PROG             ISCFPR         SCF         [  0]    ***   
       SD_FIELD             IFINSD              0             x 10-6  
       SOPERT               IPERSO         OFF         [  0]    ***   
       SPHERICAL            IDFGHI         ON          [  1]    ***   
       SPINORBIT            ISOCAL         OFF         [  0]    ***   
       SPINROTATIO          ISRCON         OFF         [  0]    ***   
       SPIN_FLIP            ISPFLP         OFF         [  0]    ***   
       SPIN_ORBIT           ISPORB         OFF         [  0]    ***   
       SPIN_SCAL            ISCSMP         OFF         [  0]    ***   
       STEEPSCALE           ISTPSC              1000          x 10-3  
       SUBGROUP             ISUBGP         DEFAULT     [  0]    ***   
       SUBGRPAXIS           ISBXYZ         X           [  0]    ***   
       SYMMETRY             ISYM           ON          [  0]    ***   
       SYM_CHECK            ISYMCK         OVERRIDE    [  1]    ***   
       T3_EXTRAPOL          IT3EXT         ON          [  1]    ***   
       T4_EXTRAPOL          IT4EXP         OFF         [  0]    ***   
       TAMP_SUM             IEVERY              5               ***   
       TESTSUITE            ITESTS         OFF         [  0]    ***   
       THERMOCH             ITHERM         OFF         [  0]    ***   
       TOL_CHOLESK          ITOLCH          10D-  4             ***   
       TRANGRAD             IRESRM         OFF         [  0]    ***   
       TRANS_INV            ITRAIN         USE         [  0]    ***   
       TREAT_PERT           ITREAT         SIMULTANEOUS[  0]    ***   
       TRIP_ALGORI          ITRALG         NORMAL      [  0]    ***   
       UIJ_THRESHO          IUIJTH              1               ***   
       UNITS                IUNITS         ANGSTROM    [  0]    ***   
       UNOS                 IUNOS          OFF         [  0]    ***   
       UPDATE_HESS          IHUPDT         ON          [  1]    ***   
       VIBPHASE             ISETPH         STANDARD    [  0]    ***   
       VIBRATION            IVIB           NO          [  0]    ***   
       VIB_ALGORIT          IGEALG         STANDARD    [  0]    ***   
       VNATORB              IVNORB         OFF         [  0]    ***   
       VTRAN                IVTRAN         FULL/PARTIAL[  0]    ***   
       XFIELD               IXEFLD              0             x 10-6  
       XFORM_TOL            IXFTOL          10D- 18             ***   
       YFIELD               IYEFLD              0             x 10-6  
       ZFIELD               IZEFLD              0             x 10-6  
       ZSCALE_EXP           IZEXPS         OFF         [  0]    ***   
    -------------------------------------------------------------------
   1 entries found in Z-matrix 
   Job Title : TITLE                                                                           
   Rotational constants (in cm-1): 

   Rotational constants (in MHz): 

********************************************************************************
   The full molecular point group is I h .
   The largest Abelian subgroup of the full molecular point group is D2h .
   The computational point group is D2h .
********************************************************************************
  ECPDATA file not present.   Using default ECPDATA. 
  @GTFLGS-W, Keyword #DROPMO not known and is ignored.
  @GTFLGS-W, Keyword #SCF_DAMPING not known and is ignored.
  @GTFLGS-W, Keyword #OCCUPATION not known and is ignored.
  There is   1 frozen-core orbital.
  There are   23 basis functions.
 @GEOPT-W, Archive file not created for single-point calculation.
 @CHECKOUT-I, Total execution time (CPU/WALL):        0.07/       0.31 seconds.
--executable xjoda finished with status     0 in        0.39 seconds (walltime).
 --invoking executable--
/home/jaafar1/projects/def-nike-ab/share/software/cfour-v2.1/bin/xvmol

OMP_NUM_THREADS not specified; defaulting to 1
Running with 1 threads/proc

 SERIAL VERSION OF MOLECULE STARTED
********************************************************************************
                    INPUT FROM MOL FILE
********************************************************************************
INTGRL        1    0    1    0    0    0    0    0    0                         
         *** CFOUR Program System (Release V0.1) ***                            
TITLE                                                                           
    1    3 X  Y   Z   0.10E-08              0    0                              
   9999.00      3.00                                                            
         10.00000000    1    3    1    1    1                                   
NE#1   0.000000000000000   0.000000000000000   0.000000000000000                
   10    4                                                                      
   17880.000000000000        7.3800000000000005E-004  -1.7200000000000001E-004  
   2683.0000000000000        5.6769999999999998E-003  -1.3569999999999999E-003  
   611.50000000000000        2.8882999999999999E-002  -6.7369999999999999E-003  
   173.50000000000000       0.10854000000000000       -2.7663000000000000E-002  
   56.640000000000001       0.29090700000000003       -7.6207999999999998E-002  
   20.420000000000002       0.44832400000000000      -0.17522699999999999       
   7.8099999999999996       0.25802599999999998      -0.10703799999999999       
   1.6530000000000000        1.5063000000000000E-002  0.56705000000000005       
  0.48690000000000000       -2.0999999999999999E-003  0.56521600000000005       
  0.12300000000000000        0.0000000000000000        0.0000000000000000       
    5    3                                                                      
   28.390000000000001        4.6087000000000003E-002   0.0000000000000000       
   6.2699999999999996       0.24018100000000001        0.0000000000000000       
   1.6950000000000001       0.50874399999999997        0.0000000000000000       
  0.43169999999999997       0.45566000000000001        1.0000000000000000       
  0.10639999999999999        0.0000000000000000        0.0000000000000000       
    2    2                                                                      
   2.2020000000000000        1.0000000000000000        0.0000000000000000       
  0.63100000000000001        0.0000000000000000        1.0000000000000000       
FINISH                                                                          

********************************************************************************
 ONE- AND TWO-ELECTRON INTEGRALS OVER SYMMETRY-ADAPTED AOS ARE CALCULATED.

  SPHERICAL HARMONICS ARE USED.
  
  INTEGRALS LESS THAN  0.10E-13 ARE NEGLECTED.

  NUCLEAR REPULSION ENERGY :    0.0000000000 A.U.
  @MOLECU-I, ONE ELECTRON INTEGRALS (CPU/WALL):        0.00/       0.00 SECONDS.
  @TWOEL-I,        379 INTEGRALS OF SYMMETRY TYPE  I I I I
  @TWOEL-I,       1506 INTEGRALS OF SYMMETRY TYPE  I J I J
  @TWOEL-I,       1161 INTEGRALS OF SYMMETRY TYPE  I I J J
  @TWOEL-I,       1760 INTEGRALS OF SYMMETRY TYPE  I J K L
  @TWOEL-I, TOTAL NUMBER OF 2-E INTEGRALS       4806.
  @MOLECU-I, TWO ELECTRON INTEGRALS (CPU/WALL):        0.01/       0.01 SECONDS.
 @CHECKOUT-I, Total execution time (CPU/WALL):        0.01/       0.04 seconds.
--executable xvmol finished with status     0 in        0.12 seconds (walltime).
 --invoking executable--
/home/jaafar1/projects/def-nike-ab/share/software/cfour-v2.1/bin/xvmol2ja
 @GETMEM-I,  Allocated    3814 MB of main memory.
 @CHECKOUT-I, Total execution time (CPU/WALL):        0.00/       0.00 seconds.
--executable xvmol2ja finished with status     0 in        0.17 seconds (walltime).
 --invoking executable--
/home/jaafar1/projects/def-nike-ab/share/software/cfour-v2.1/bin/xvscf
  There are   23 functions in the AO basis.

  There are 8 irreducible representations.

       Irrep        # of functions
         1                  8
         2                  3
         3                  3
         4                  2
         5                  3
         6                  2
         7                  2
         8                  0


  Parameters for SCF calculation: 
        SCF reference function:  RHF  
  Maximum number of iterations: 9999
     Full symmetry point group: I h 
     Computational point group: D2h 
        Initial density matrix: MOREAD                 
     SCF convergence tolerance: 10**(-13)
  DIIS convergence acceleration:  ON
          Latest start for DIIS:   5
                     DIIS order:   6

  Memory information:      62242 words required.
  Fock matrices are constructed from AO integral file.
 @GETMEM-I,  Allocated       0 MB of main memory.
  Initialization and symmetry analysis required      0.001 seconds.

  @INITGES-I, Occupancies from core Hamiltonian:

          Alpha population by irrep:   2    1    1    0    1    0    0    0
           Beta population by irrep:   2    1    1    0    1    0    0    0


 total no. of electrons in initial guess :   0.0000000000000000     
  --------------------------------------------------------------------
  Iteration         Total Energy            Largest Density Difference
  --------------------------------------------------------------------
       0             0.000000000000000              0.0000000000D+00
   current occupation vector 
     2  1  1  0  1  0  0  0
     2  1  1  0  1  0  0  0
       1          -122.519403120776573              0.8989886764D+01
   current occupation vector 
     2  1  1  0  1  0  0  0
     2  1  1  0  1  0  0  0
       2          -119.861871954782913              0.7789296256D+01
   current occupation vector 
     2  1  1  0  1  0  0  0
     2  1  1  0  1  0  0  0
       3          -126.334899567235951              0.3539550161D+01
   current occupation vector 
     2  1  1  0  1  0  0  0
     2  1  1  0  1  0  0  0
       4          -127.377864412171306              0.3376291928D+01
   current occupation vector 
     2  1  1  0  1  0  0  0
     2  1  1  0  1  0  0  0
       5          -128.202829573145834              0.1522254180D+01
   current occupation vector 
     2  1  1  0  1  0  0  0
     2  1  1  0  1  0  0  0
       6          -128.495241597984631              0.8568832251D+00
   current occupation vector 
     2  1  1  0  1  0  0  0
     2  1  1  0  1  0  0  0
       7          -128.496272287330640              0.1701099983D-01
   current occupation vector 
     2  1  1  0  1  0  0  0
     2  1  1  0  1  0  0  0
       8          -128.496345026830312              0.9102692943D-02
   current occupation vector 
     2  1  1  0  1  0  0  0
     2  1  1  0  1  0  0  0
       9          -128.496349725854600              0.2475873292D-02
   current occupation vector 
     2  1  1  0  1  0  0  0
     2  1  1  0  1  0  0  0
      10          -128.496349730530653              0.1079966285D-03
   current occupation vector 
     2  1  1  0  1  0  0  0
     2  1  1  0  1  0  0  0
      11          -128.496349730540771              0.2568998697D-05
   current occupation vector 
     2  1  1  0  1  0  0  0
     2  1  1  0  1  0  0  0
      12          -128.496349730540771              0.6430250865D-07
   current occupation vector 
     2  1  1  0  1  0  0  0
     2  1  1  0  1  0  0  0
      13          -128.496349730540686              0.1777709785D-09
   current occupation vector 
     2  1  1  0  1  0  0  0
     2  1  1  0  1  0  0  0
      14          -128.496349730540743              0.2024297396D-11
   current occupation vector 
     2  1  1  0  1  0  0  0
     2  1  1  0  1  0  0  0
      15          -128.496349730540800              0.1093791724D-11
   current occupation vector 
     2  1  1  0  1  0  0  0
     2  1  1  0  1  0  0  0

  SCF has converged.

 Density matrix saved to file den.dat
 total electron number:   10.000000000000007     
     E(SCF)=      -128.496349730540771              0.6838973832D-13

  Eigenvector printing suppressed.

 @PUTMOS-I, Writing converged MOs to NEWMOS. 
 @PUTMOS-I, Symmetry   1 Full Blocks  2 Partial Blocksize   0
 @PUTMOS-I, Symmetry   2 Full Blocks  0 Partial Blocksize   3
 @PUTMOS-I, Symmetry   3 Full Blocks  0 Partial Blocksize   3
 @PUTMOS-I, Symmetry   4 Full Blocks  0 Partial Blocksize   2
 @PUTMOS-I, Symmetry   5 Full Blocks  0 Partial Blocksize   3
 @PUTMOS-I, Symmetry   6 Full Blocks  0 Partial Blocksize   2
 @PUTMOS-I, Symmetry   7 Full Blocks  0 Partial Blocksize   2
 @PUTMOS-I, Symmetry   8 Full Blocks  0 Partial Blocksize   0
 @PUTFOCK-I, Writing converged Fock matrix to NEWFOCK. 
 @PUTFOCK-I, Symmetry   1 Full Blocks  2 Partial Blocksize   0
 @PUTFOCK-I, Symmetry   2 Full Blocks  0 Partial Blocksize   3
 @PUTFOCK-I, Symmetry   3 Full Blocks  0 Partial Blocksize   3
 @PUTFOCK-I, Symmetry   4 Full Blocks  0 Partial Blocksize   2
 @PUTFOCK-I, Symmetry   5 Full Blocks  0 Partial Blocksize   3
 @PUTFOCK-I, Symmetry   6 Full Blocks  0 Partial Blocksize   2
 @PUTFOCK-I, Symmetry   7 Full Blocks  0 Partial Blocksize   2
 @PUTFOCK-I, Symmetry   8 Full Blocks  0 Partial Blocksize   0



  ORBITAL EIGENVALUES (ALPHA)  (1H = 27.2113834 eV)

       MO #        E(hartree)               E(eV)           FULLSYM    COMPSYM
       ----   --------------------   --------------------   -------   ---------
    1     1         -32.7949508774        -892.3959819098      Ag        Ag (1)
    2     2          -1.9404208834         -52.8015366162      Ag        Ag (1)
    3     9          -0.8530401421         -23.2124023629     T1u       B2u (2)
    4    12          -0.8530401421         -23.2124023629     T1u       B3u (3)
    5    17          -0.8530401421         -23.2124023629     T1u       B1u (5)
  +++++++++++++++++++++++++++++++++++++++++++++++++++++++++++++++++++++++++++++
    6     3           0.2873551877           7.8193321844      Ag        Ag (1)
    7    13           0.2930113686           7.9732446919     T1u       B3u (3)
    8    10           0.2930113686           7.9732446919     T1u       B2u (2)
    9    18           0.2930113686           7.9732446919     T1u       B1u (5)
   10     4           1.7576919295          47.8292289933      Hg        Ag (1)
   11    15           1.7576919295          47.8292289933      Hg       B1g (4)
   12     5           1.7576919295          47.8292289933      Hg        Ag (1)
   13    20           1.7576919295          47.8292289933      Hg       B3g (6)
   14    22           1.7576919295          47.8292289933      Hg       B2g (7)
   15    14           1.9613506228          53.3710637783     T1u       B3u (3)
   16    11           1.9613506228          53.3710637783     T1u       B2u (2)
   17    19           1.9613506228          53.3710637783     T1u       B1u (5)
   18     6           2.7419656930          74.6126797431      Ag        Ag (1)
   19     7           6.3724730138         173.4038063853      Hg        Ag (1)
   20    21           6.3724730138         173.4038063853      Hg       B3g (6)
   21    23           6.3724730138         173.4038063853      Hg       B2g (7)
   22    16           6.3724730138         173.4038063853      Hg       B1g (4)
   23     8           6.3724730138         173.4038063853      Hg        Ag (1)


  VSCF finished.

 @CHECKOUT-I, Total execution time (CPU/WALL):        0.01/       0.10 seconds.
--executable xvscf finished with status     0 in        0.20 seconds (walltime).
 --invoking executable--
/home/jaafar1/projects/def-nike-ab/share/software/cfour-v2.1/bin/xvtran
 @GETMEM-I,  Allocated    3814 MB of main memory.
  Full RHF integral transformation
  The following   1 MOs will be dropped:
    1
  There are  22 active molecular orbitals.
  Transformation of IIII integrals :
  1 pass through the AO integral file was required.
         379 AO integrals were read.
         487 MO integrals were written to HF2.
  Transformation of IIJJ integrals :
  1 pass through the AO integral file was required.
        1161 AO integrals were read.
        1053 MO integrals were written to HF2.
  Transformation of IJIJ integrals :
  1 pass through the AO integral file was required.
        1506 AO integrals were read.
        1362 MO integrals were written to HF2.
  Transformation of IJKL integrals :
  1 pass through the AO integral file was required.
        1760 AO integrals were read.
        1626 MO integrals were written to HF2.
  Summary of active molecular orbitals: 
------------------------------------------------------------------------

  Index      Eigenvalue    Symmetry    Index      Eigenvalue    Symmetry
------------------------------------------------------------------------
     1        -1.9404209        1        12         1.9613506        2
     2        -0.8530401        2        13         0.2930114        3
     3        -0.8530401        3        14         1.9613506        3
     4        -0.8530401        5        15         1.7576919        4
     5         0.2873552        1        16         6.3724730        4
     6         1.7576919        1        17         0.2930114        5
     7         1.7576919        1        18         1.9613506        5
     8         2.7419657        1        19         1.7576919        6
     9         6.3724730        1        20         6.3724730        6
    10         6.3724730        1        21         1.7576919        7
    11         0.2930114        2        22         6.3724730        7
------------------------------------------------------------------------
  -1.9404208834221888      -0.85304014212254953      -0.85304014212254820      -0.85304014212254797       0.28735518769586471        1.7576919295224280        1.7576919295224336        2.7419656930447576        6.3724730138240826        6.3724730138241057       0.29301136861248778        1.9613506227809998       0.29301136861248733        1.9613506227809936        1.7576919295224327        6.3724730138240986       0.29301136861248822        1.9613506227810058        1.7576919295224336        6.3724730138240933        1.7576919295224336        6.3724730138240977     
 @CHECKOUT-I, Total execution time (CPU/WALL):        0.01/       0.01 seconds.
--executable xvtran finished with status     0 in        0.10 seconds (walltime).
 --invoking executable--
/home/jaafar1/projects/def-nike-ab/share/software/cfour-v2.1/bin/xintprc
 @GETMEM-I,  Allocated    3814 MB of main memory.
  @GMOIAA-I, Processing MO integrals for spin case AA.
  @GMOIAA-I, Generation of integral list completed.
                      TYPE                NUMBER
                      ----               --------
                      PPPP                  2118
                      PPPH                  1620
                      PPHH                   396
                      PHPH                   276
                      PHHH                   102
                      HHHH                    16

                     TOTAL                  4528

  @FORMT2-I, Second-order MP correlation energies:
            ------------------------------------------------
            E(SCF)                  =   -128.496349730541 a.u.
            E2(AA)                  =     -0.028369176137 a.u.
            E2(AB)                  =     -0.150135156267 a.u.
            E2(TOT)                 =     -0.206873508541 a.u.
            Total MP2 energy        =   -128.703223239082 a.u.
            ------------------------------------------------
   Largest T2 amplitudes for spin case AB:
       _       _                 _       _                 _       _
   i   j   a   b             i   j   a   b             i   j   a   b
-----------------------------------------------------------------------------
[  3   3  14  14]-0.03217 [  4   4  18  18]-0.03217 [  2   2  12  12]-0.03217
[  3   2  14  12]-0.02502 [  2   3  12  14]-0.02502 [  4   3  18  14]-0.02502
[  3   4  14  18]-0.02502 [  4   2  18  12]-0.02502 [  2   4  12  18]-0.02502
[  3   1  14   8]-0.01790 [  1   3   8  14]-0.01790 [  4   1  18   8]-0.01790
[  1   4   8  18]-0.01790 [  2   1  12   8]-0.01790 [  1   2   8  12]-0.01790
-----------------------------------------------------------------------------
   Norm of T2AB vector (      720 symmetry allowed elements):  0.1536872620.
-----------------------------------------------------------------------------
 @CHECKOUT-I, Total execution time (CPU/WALL):        0.01/       0.14 seconds.
--executable xintprc finished with status     0 in        0.20 seconds (walltime).
 --invoking executable--
/home/jaafar1/projects/def-nike-ab/share/software/cfour-v2.1/bin/xint
 @GETMEM-I,  Allocated    3814 MB of main memory.
 @CHECKOUT-I, Total execution time (CPU/WALL):        0.01/       0.03 seconds.
--executable xint finished with status     0 in        0.13 seconds (walltime).
 --invoking executable--
/home/jaafar1/projects/def-nike-ab/jaafar1/MRCC-MRCC/rrg-tzeng-compiled-versions/mrcc-2025-pert-skipcc/dmrcc
 **********************************************************************
                          MRCC program system
 **********************************************************************
 
                              Written by
     Mihaly Kallay, Peter R. Nagy, David Mester, Laszlo Gyevi-Nagy,
        Jozsef Csoka, P. Bernat Szabo, Zoltan Rolik, Gyula Samu,
      Bence Hegely, Bence Ladoczki, Klara Petrov, Jozsef Csontos,
     Adam Ganyecz, Istvan Ladjanszki, Lorant Szegedy, Mate Farkas,
          Pal D. Mezei, Reka A. Horvath, and Balazs D. Lorincz
 
        Department of Physical Chemistry and Materials Science
            Budapest University of Technology and Economics
                  Budapest P.O.Box 91, H-1521 Hungary
 
                              www.mrcc.hu
 
                            Version: 25.1.0

 ************************ 2025-10-08 16:35:57 *************************
 Executing minp...

 Reading input from MINP...
 
 Input file:
 
basis=aVDZ-EMSL
iface=cfour
uncontract=off
calc=CCSD(T)
ccprog=mrcc
#mem=4GB
core=frozen
itol=18
scftol=13
cctol=7
ccmaxit=999
scfmaxit=9999
scfiguess=ao
scftype=RHF
#rohftype=standard
rest=2
charge=+0
mult=1
#refdet=serialno
#1-5
symm=1
occ=2,0,0,0,0,1,1,1
geom
NE

#Li 1 R
#R=3.065

#unit=angstroms

tprint=0.01
verbosity=3
#nstate=4
 
 
 Checking keyword combinations...
 
 Keywords:
 
 active=none
 agrid=ld0006-ld0590
 agrid_pssp=ld0006-ld0194
 agrid_pssp_sm=ld0006-ld0074
 basis=avdz-emsl
 basis_sm=none
 basopt=off
 bfbasis=none
 bfgsmem=10
 bfgstol=1.0d-3
 boysalg=jacobi
 bpcompo=0.985
 bpcompv=0.98
 bpdfo=0.985
 bpocc=0.985
 bppdo=0.985
 bppdv=0.98
 bpedo=0.985
 bpedv=0.98
 bp_subsyso=0.95
 bp_subsysv=0.95
 cabscorr=off
 cabsdual=off
 calc=ccsd(t)
 ccmaxit=999
 ccprog=mrcc
 ccsdalg=disk
 ccsdmkl=seq
 ccsdrest=off
 ccsdthreads=2
 cctol=7
 charge=+0
 cialg=disk
 ciguess=off
 cmpgrp=auto
 comprest=off
 coord_sys=ric
 core=frozen
 corembed=off
 csapprox=off
 cvs=off
 dboc=off
 deltaf12=off
 delocsomofact=
 dendec=cholesky
 dens=0
 denscorr=0
 dfalg=lineq
 dfbasis_cab=none
 dfbasis_cor=none
 dfbasis_scf=none
 dfbasis_scf_sm=auto
 dfintran=ovirt
 dft=off
 dhexc=adc(2)
 diag=david
 docc=
 domrad=10.d0
 drpaalg=fit
 dual=off
 dual_df=off
 dyson=off
 ecp=auto
 edisp=off
 edisp_embed=off
 embed=off
 epairestfact=off
 epairscale=1.d0
 etemp=300
 epert=none
 eps=
 espcharge=off
 excrad=0.d0
 excrad_f12=0.d0
 excrad_fin=0.000000000D+00
 fastdbbsc=v2
 fitting=coulomb
 fmm=off
 fmmord=8
 fnonorb=
 freq=off
 gamma=1.d0
 gauss=spher
 geom=zmat
 gopt=off
 ghost=none
 gtol=7
 grdens=off
 grid=auto
 grid_sm=auto
 gridbatch_cos=2000
 grtol=10
 guido_ct=off
 hamilton=dc
 iface=cfour
 incore=off
 intalg=auto
 ip_ea=off
 itol=18
 laptol=1.d-2
 lccoporder=trffirst
 lcorthr=normal
 lccrest=off
 ldfgrad_tol=8
 lmp2dens=on
 lnoepso=0.d0
 lnoepsv=1e-6
 localcc=off
 localcorrsymm=off
 locintrf=disk
 mact=
 maxact=off
 maxdim=200
 maxex=0
 maxmicroit=100
 mcscfiguess=hf
 mem=256MB
 mmprog=
 molden=on
 mp2ongrid=off
 mpitasks=1
 mulmet=0
 mult=1
 nab=off
 nacto=0
 nactv=0
 naf_amp=3.16d-3
 naf_cor=off
 naf_f12=off
 naf_scf=off
 nafalg=albe
 nafdens=off
 naftyp=
 nchol=auto
 ndeps=1e-3
 nstate=1
 nsing=0
 nto=off
 ntrip=0
 num_grad=off
 occ=2,0,0,0,0,1,1,1
 occri=off
 oniom=off
 oniom_eechg=off
 oniom_pcm=off
 oniom_qcorr=off
 optalg=
 optmaxit=50
 optetol=1e-6
 optex=0
 optgtol=1e-4
 optstol=1e-3
 orblocc=off
 orbloce=off
 orbloco=off
 orblocv=off
 orblocguess=cholesky
 osveps=1e-3
 ovirt=off
 ovltol=1e-7
 ovosnorb=80.0
 pao_subsys_tol=1e-3
 pao_tol=1e-3
 pcm=off
 popul=off
 pressure=100000
 pssp=off
 ptfreq=0.0
 ptthreads=2
 qmreg=
 qmmm=off
 qro=off
 qscf=off
 redcost_exc=off
 redcost_tddft=off
 refdet=none
 rest=2
 rgrid=log3
 rism=off
 rohfcore=semicanonical
 rohftype=semicanonical
 scfalg=auto
 scf_conv=auto
 scfdamp=0.0d0
 scfdamp_mode=off
 scfdamp_end=9999
 scfdamp_dampstep=0.d0
 scfdamp_dtol=0.0d0
 scfdamp_maxfact=0.0d0
 scfdamp_minfact=0.0d0
 scfdiis=on
 scfdiis_dtol=0.0d0
 scfdiis_end=9999
 scfdiis_start=2
 scfdiis_step=1
 scfdiis_watch=off
 scfdiis_wrange=10
 scfdiis_wlimit=5
 scfdiis_delmax=2
 scfdtol=14
 scfext=10
 scfguessdens=
 scfiguess=ao
 scfloc=off
 scflshift=0.20
 scflshift_end=8
 scflshift_dtol=0.0
 scflshift_gaptol=0.20
 scfmaxit=9999
 scftype=rhf
 scftol=13
 scspe=1.d0
 scsph=1.d0
 scsps=1.2d0
 scsps_t=1.2d0
 scspt=0.33333333333333
 scspt_t=0.33333333333333
 scspv=1.d0
 spairtol=1e-4
 sqmprog=
 subminp=top
 subsys_bopu=on
 symm=1
 talg=occ
 temp=298.15
 test=off
 theodore=off
 tlmo=0.999
 tpao=0.94
 tprint=0.01
 uncontract=off
 unit=angs
 usedisk=2
 verbosity=3
 wpairtol=0.100000000E-05
 ispstart=
 ispend=

 ************************ 2025-10-08 16:35:58 *************************
 Executing goldstone...

 Generation of CC equations in terms of H and T...
 Generation of antisymmetrized Goldstone diagrams...
 Number of diagrams in T^1 equations:    15
 Number of diagrams in T^2 equations:    33
 Number of diagrams in T^3 equations:     2
 Translation of diagrams to factorized equations...
 Optimizing intermediate calculation...
 Number of floating-point operations per iteration step:   3.6077E+06
 Probable CPU time per iteration step (hours):            0.00
 Required memory (Mbytes):            14.6
 Number of intermediates:                                  48
 Number of intermediates to be stored:                     20
 Length of intermediate file (Mbytes):             0.5

 ************************ 2025-10-08 16:35:58 *************************
 Executing xmrcc...

 **********************************************************************
 CC(2)(3) calculation 
 
 
 Allocation of          256.0 Mbytes of memory...
 Number of spinorbitals:                    44
 Number of alpha electrons:                        4
 Number of beta electrons:                         4
 Spin multiplicity:                     1
 z-component of spin:  0.0
 Spatial symmetry:                      1
 Convergence criterion:  1.0E-07
 Construction of occupation graphs...
 Number of                     0 -fold excitations:                      1
 Number of                     1 -fold excitations:                     24
 Number of                     2 -fold excitations:                    960
 Total number of configurations:                    985
 Calculation of coupling coefficients...
 Length of intermediate file (Mbytes):             0.5
 
 ======================================================================
 
 Spin case  1   Alpha:  0   Beta:  3
 Number of excitations:                    416
 Spin case  2   Alpha:  1   Beta:  2
 Number of excitations:                   8262
 Number of                     3 -fold excitations:                  17356
 
 Memory requirements /Mbyte/: 
               Minimal        Optimal
 Real*8:          6.0462         6.0462
 Integer:         3.3872
 Total:           9.4334         9.4334
 

 ************************ 2025-10-08 16:35:58 *************************
 Executing goldstone...

 Generation of CC equations in terms of H and T...
 Generation of antisymmetrized Goldstone diagrams...
 Number of diagrams in T^1 equations:    15
 Number of diagrams in T^2 equations:    33
 Number of diagrams in T^3 equations:     2
 Translation of diagrams to factorized equations...
 Optimizing intermediate calculation...
 Number of floating-point operations per iteration step:   3.6077E+06
 Probable CPU time per iteration step (hours):            0.00
 Required memory (Mbytes):            14.6
 Number of intermediates:                                  48
 Number of intermediates to be stored:                     20
 Length of intermediate file (Mbytes):             0.5

 ************************ 2025-10-08 16:35:58 *************************
 Executing xmrcc...

 **********************************************************************
 CC(2)(3) calculation 
 
 
 Allocation of          256.0 Mbytes of memory...
 Number of spinorbitals:                    44
 Number of alpha electrons:                        4
 Number of beta electrons:                         4
 Spin multiplicity:                     1
 z-component of spin:  0.0
 Spatial symmetry:                      1
 Convergence criterion:  1.0E-07
 Construction of occupation graphs...
 Number of                     0 -fold excitations:                      1
 Number of                     1 -fold excitations:                     24
 Number of                     2 -fold excitations:                    960
 Total number of configurations:                    985
 Calculation of coupling coefficients...
 Length of intermediate file (Mbytes):             0.5
 
 ======================================================================
 
 Spin case  1   Alpha:  0   Beta:  3
 Number of excitations:                    416
 Spin case  2   Alpha:  1   Beta:  2
 Number of excitations:                   8262
 Number of                     3 -fold excitations:                  17356
 
 Memory requirements /Mbyte/: 
               Minimal        Optimal
 Real*8:          6.0462         6.0462
 Integer:         3.3872
 Total:           9.4334         9.4334
 

 ************************ 2025-10-08 16:35:59 *************************
 Executing mrcc...

 **********************************************************************
 CCSD(T) calculation                                                    
 
 
 OpenMP parallel version is running.
 Number of CPU cores:  32
 Allocation of            6.0 Mbytes of memory...
 Number of spinorbitals:  44
 Number of alpha electrons:  4
 Number of beta  electrons:  4
 Spin multiplicity: 1
 z-component of spin:  0.0
 Spatial symmetry: 1
 Convergence criterion:  1.0E-07
 Construction of occupation graphs...
 Number of 0-fold excitations: 1
 Number of 1-fold excitations: 24
 Number of 2-fold excitations: 960
 Total number of determinants: 985
 Calculation of coupling coefficients...
 Initial cluster amplitudes are generated.
 Length of intermediate file (Mbytes):       0.5
 Reading integral list from unit 55...
 Sorting integrals...
 Energy of reference determinant [au]:    -128.496349730541
 Calculation of MP denominators...
 
 Starting CC iteration...
 ======================================================================
 Norm of residual vector:     1.25530196
 CPU time [min]:     0.587                   Wall time [min]:     0.023
 
 Iteration  1  CC energy:  -128.70322324  Energy decrease:   0.20687351
 ======================================================================
 Norm of residual vector:     0.11371251
 CPU time [min]:     0.701                   Wall time [min]:     0.027
 
 Iteration  2  CC energy:  -128.70357417  Energy decrease:   0.00035093
 ======================================================================
 Norm of residual vector:     0.03229575
 CPU time [min]:     0.839                   Wall time [min]:     0.032
 
 Iteration  3  CC energy:  -128.70615071  Energy decrease:   0.00257654
 ======================================================================
 Norm of residual vector:     0.00745097
 CPU time [min]:     1.004                   Wall time [min]:     0.038
 
 Iteration  4  CC energy:  -128.70655839  Energy decrease:   0.00040768
 ======================================================================
 Norm of residual vector:     0.00139227
 CPU time [min]:     1.127                   Wall time [min]:     0.042
 
 Iteration  5  CC energy:  -128.70651827  Energy decrease:   0.00004012
 ======================================================================
 Norm of residual vector:     0.00030757
 CPU time [min]:     1.239                   Wall time [min]:     0.046
 
 Iteration  6  CC energy:  -128.70650450  Energy decrease:   0.00001377
 ======================================================================
 Norm of residual vector:     0.00005204
 CPU time [min]:     1.331                   Wall time [min]:     0.049
 
 Iteration  7  CC energy:  -128.70650426  Energy decrease:   0.00000024
 ======================================================================
 Norm of residual vector:     0.00001101
 CPU time [min]:     1.455                   Wall time [min]:     0.054
 
 Iteration  8  CC energy:  -128.70650415  Energy decrease:   0.00000011
 ======================================================================
 Norm of residual vector:     0.00000154
 CPU time [min]:     1.750                   Wall time [min]:     0.064
 
 Iteration  9  CC energy:  -128.70650413  Energy decrease:   0.00000002
 ======================================================================
 Norm of residual vector:     0.00000028
 CPU time [min]:     2.017                   Wall time [min]:     0.074
 
 Iteration 10  CC energy:  -128.70650413  Energy decrease:   6.4904E-10
 ======================================================================
 Norm of residual vector:     0.00000003
 CPU time [min]:     2.105                   Wall time [min]:     0.077
 
 Iteration 11  CC energy:  -128.70650413  Energy decrease:   4.2803E-11
 ======================================================================
 
 Iteration has converged in 11 steps.
 
 Final results:
 Total CCSD energy [au]:                     -128.706504131031
 Total MP2 energy [au]:                      -128.703223239082
 
 Perturbative corrections are calculated...
 ======================================================================
 Spin case  1   Alpha:  0   Beta:  3
 Number of excitations:        416
 ispcorr1 :     0.000032811088
 ispcorr2 :    -0.000172834028
 corr1    :     0.000032811088
 corr2    :    -0.000172834028
 CPU time [min]:     2.110                   Wall time [min]:     0.077
 ======================================================================
 Spin case  2   Alpha:  1   Beta:  2
 Number of excitations:        8262
 ispcorr1 :     0.000431437809
 ispcorr2 :    -0.003081912986
 corr1    :     0.000464248897
 corr2    :    -0.003254747014
 CPU time [min]:     2.112                   Wall time [min]:     0.077
 ======================================================================
 Number of 3-fold excitations: 17356
 CPU time [min]:     2.113                   Wall time [min]:     0.077
 
 Total CCSD[T] energy [au]:                  -128.709758878045
 Total CCSD(T) energy [au]:                  -128.709758878045
 
 Dominant cluster amplitudes
 Printing threshold:  1.00E-02
 
    1.000000  Reference determinant                                     
   -0.014521  2b -> 7b                                                  
   -0.014521  3b -> 6b                                                  
   -0.014521  4b -> 8b                                                  
   -0.014521  2a -> 7a                                                  
   -0.014521  3a -> 6a                                                  
   -0.014521  4a -> 8a                                                  
    0.013980  2b 3b -> 9b 10b                                           
   -0.010134  2b 3b -> 7b 14b                                           
    0.010134  2b 3b -> 6b 15b                                           
    0.018369  2b 3b -> 14b 15b                                          
    0.012008  2b 4b -> 11b 12b                                          
    0.010134  2b 4b -> 8b 15b                                           
   -0.010134  2b 4b -> 7b 16b                                           
   -0.018369  2b 4b -> 15b 16b                                          
    0.012206  3b 4b -> 11b 13b                                          
    0.010134  3b 4b -> 8b 14b                                           
   -0.010134  3b 4b -> 6b 16b                                           
   -0.018369  3b 4b -> 14b 16b                                          
   -0.013711  1a 1b -> 17a 17b                                          
   -0.012401  2a 2b -> 9a 9b                                            
   -0.012041  3a 3b -> 9a 9b                                            
   -0.015874  4a 4b -> 11a 11b                                          
   -0.010856  4a 4b -> 22a 22b                                          
   -0.013308  2a 2b -> 7a 7b                                            
   -0.017427  2a 2b -> 15a 7b                                           
   -0.017427  2a 2b -> 7a 15b                                           
   -0.033752  2a 2b -> 15a 15b                                          
   -0.013308  3a 3b -> 6a 6b                                            
   -0.017427  3a 3b -> 14a 6b                                           
   -0.017427  3a 3b -> 6a 14b                                           
   -0.033752  3a 3b -> 14a 14b                                          
   -0.012223  2a 2b -> 10a 10b                                          
   -0.012223  3a 3b -> 10a 10b                                          
   -0.013308  4a 4b -> 8a 8b                                            
   -0.017427  4a 4b -> 16a 8b                                           
   -0.017427  4a 4b -> 8a 16b                                           
   -0.033752  4a 4b -> 16a 16b                                          
   -0.012223  2a 2b -> 12a 12b                                          
   -0.012223  4a 4b -> 12a 12b                                          
   -0.012223  3a 3b -> 13a 13b                                          
   -0.012223  4a 4b -> 13a 13b                                          
    0.011879  1a 2b -> 5a 15b                                           
   -0.018525  1a 2b -> 17a 15b                                          
    0.011879  2a 1b -> 15a 5b                                           
   -0.018525  2a 1b -> 15a 17b                                          
    0.011879  1a 3b -> 5a 14b                                           
   -0.018525  1a 3b -> 17a 14b                                          
    0.011879  3a 1b -> 14a 5b                                           
   -0.018525  3a 1b -> 14a 17b                                          
   -0.010052  2a 3b -> 7a 6b                                            
   -0.012889  2a 3b -> 15a 6b                                           
   -0.012889  2a 3b -> 7a 14b                                           
   -0.024124  2a 3b -> 15a 14b                                          
   -0.010052  3a 2b -> 6a 7b                                            
   -0.012889  3a 2b -> 14a 7b                                           
   -0.012889  3a 2b -> 6a 15b                                           
   -0.024124  3a 2b -> 14a 15b                                          
    0.011879  1a 4b -> 5a 16b                                           
   -0.018525  1a 4b -> 17a 16b                                          
    0.011879  4a 1b -> 16a 5b                                           
   -0.018525  4a 1b -> 16a 17b                                          
   -0.010052  2a 4b -> 7a 8b                                            
   -0.012889  2a 4b -> 15a 8b                                           
   -0.012889  2a 4b -> 7a 16b                                           
   -0.024124  2a 4b -> 15a 16b                                          
   -0.010052  4a 2b -> 8a 7b                                            
   -0.012889  4a 2b -> 16a 7b                                           
   -0.012889  4a 2b -> 8a 15b                                           
   -0.024124  4a 2b -> 16a 15b                                          
   -0.010052  3a 4b -> 6a 8b                                            
   -0.012889  3a 4b -> 14a 8b                                           
   -0.012889  3a 4b -> 6a 16b                                           
   -0.024124  3a 4b -> 14a 16b                                          
   -0.010052  4a 3b -> 8a 6b                                            
   -0.012889  4a 3b -> 16a 6b                                           
   -0.012889  4a 3b -> 8a 14b                                           
   -0.024124  4a 3b -> 16a 14b                                          
    0.013980  2a 3a -> 9a 10a                                           
   -0.010134  2a 3a -> 7a 14a                                           
    0.010134  2a 3a -> 6a 15a                                           
    0.018369  2a 3a -> 14a 15a                                          
    0.012008  2a 4a -> 11a 12a                                          
    0.010134  2a 4a -> 8a 15a                                           
   -0.010134  2a 4a -> 7a 16a                                           
   -0.018369  2a 4a -> 15a 16a                                          
    0.012206  3a 4a -> 11a 13a                                          
    0.010134  3a 4a -> 8a 14a                                           
   -0.010134  3a 4a -> 6a 16a                                           
   -0.018369  3a 4a -> 14a 16a                                          
 
 ************************ 2025-10-08 16:36:04 *************************
                      Normal termination of mrcc.
 **********************************************************************
--executable dmrcc finished with status     0 in        6.62 seconds (walltime).
  The final electronic energy is      -128.709758878045392 a.u. 
  This computation required                            8.04 seconds (walltime).
