#INFO: **** input file is /lustre09/project/6004934/jaafar1/PySCF-MRCC/Oxygen/NewChapter-Cation/AE/dawCV4Z/UHF/input.py ****
import pyscf
from pyscf import cc, lib, tools, scf, symm, ao2mo
from pyscf.gto.basis import parse_gaussian
from pyscf.scf import atom_hf

name = 'out'
mol = pyscf.M(
    atom = '''
        O
    ''',
    unit = 'angstrom',
    basis = {
            'O' : parse_gaussian.load('O-d-aug-cc-pwCVQZ.gbs', 'O')
    },
    charge = 1,
    spin = 3,
    symmetry = True,
    verbose = 9,
    symmetry_subgroup = 'D2h',
    output = name +'.txt',
    max_memory = 16000,
)

original_AtomSphAverageRHF = atom_hf.AtomSphAverageRHF

class CustomAtomSphAverageRHF(original_AtomSphAverageRHF):
    def __init__(self, mol):
        super().__init__(mol)
        self.max_cycle = 9999
        self.direct_scf = False

atom_hf.AtomSphAverageRHF = CustomAtomSphAverageRHF

mf = mol.UHF().set(
    conv_tol=1e-13,
    max_cycle=9999,
    ddm_tol=1e-12,
    direct_scf=False,
    chkfile=name + '.chk',
    init_guess='atom',
    irrep_nelec={'Ag': 4, 'B3u': 1, 'B2u': 1, 'B1u': 1}
)

mf.kernel()

atom_hf.AtomSphAverageRHF = original_AtomSphAverageRHF

#pyscf.tools.fcidump.from_chkfile_uhf('FCIdump',name+'.chk',tol=1e-18, float_format='% 0.20E',molpro_orbsym=False,orbsym=None)
pyscf.tools.fcidump.from_scf_uhf(mf,'fort.55',tol=1e-18, float_format='% 0.20E',molpro_orbsym=False)
#MRCCInterface.run_mrcc(mf, fort_file='fort.55', mrcc_input_file='MINP', tol=1e-18, float_format='% 0.20E', molpro_orbsym=False)
#INFO: ******************** input file end ********************


System: uname_result(system='Linux', node='rc31901', release='5.14.0-611.42.1.el9_7.x86_64', version='#1 SMP PREEMPT_DYNAMIC Tue Mar 24 05:30:20 EDT 2026', machine='x86_64')  Threads 4
Python 3.13.2 (main, Feb  5 2025, 15:06:39) [GCC 13.3.0]
numpy 2.2.2  scipy 1.15.1  h5py 3.13.0
Date: Sun Mar 29 20:54:03 2026
PySCF version 2.10.0
PySCF path  /home/jaafar1/links/projects/rrg-tzeng/jaafar1/VENV/MRCCInterface/lib/python3.13/site-packages/pyscf

[CONFIG] ARGPARSE = False
[CONFIG] DEBUG = False
[CONFIG] MAX_MEMORY = 4000
[CONFIG] TMPDIR = /tmp
[CONFIG] UNIT = angstrom
[CONFIG] VERBOSE = 3
[CONFIG] conf_file = None
[INPUT] verbose = 9
[INPUT] max_memory = 16000 
[INPUT] num. atoms = 1
[INPUT] num. electrons = 7
[INPUT] charge = 1
[INPUT] spin (= nelec alpha-beta = 2S) = 3
[INPUT] symmetry True subgroup D2h
[INPUT] Mole.unit = angstrom
[INPUT] Symbol           X                Y                Z      unit          X                Y                Z       unit  Magmom
[INPUT]  1 O      0.000000000000   0.000000000000   0.000000000000 AA    0.000000000000   0.000000000000   0.000000000000 Bohr   0.0
[INPUT] ---------------- BASIS SET ---------------- 
[INPUT] l, kappa, [nprim/nctr], expnt,             c_1 c_2 ...
[INPUT] O
[INPUT] 0    0    [1    /1   ]  71.206               1
[INPUT] 0    0    [1    /1   ]  27.314               1
[INPUT] 0    0    [12   /2   ]  61420             9e-05 -2e-05
                                9199              0.000698 -0.000159
                                2091              0.003664 -0.000829
                                590.9             0.015218 -0.003508
                                192.3             0.052423 -0.012156
                                69.32             0.145921 -0.036261
                                26.97             0.305258 -0.082992
                                11.1              0.398508 -0.15209
                                4.682             0.21698 -0.115331
                                1.428             0.017594 0.288979
                                0.5547            -0.002502 0.586128
                                0.2067            0.000954 0.277624
[INPUT] 0    0    [1    /1   ]  10.478               1
[INPUT] 0    0    [1    /1   ]  1.428                1
[INPUT] 0    0    [1    /1   ]  0.5547               1
[INPUT] 0    0    [1    /1   ]  0.2067               1
[INPUT] 0    0    [1    /1   ]  0.06959              1
[INPUT] 0    0    [1    /1   ]  0.0234               1
[INPUT] 1    0    [1    /1   ]  94.398               1
[INPUT] 1    0    [1    /1   ]  32.459               1
[INPUT] 1    0    [1    /1   ]  11.161               1
[INPUT] 1    0    [1    /1   ]  1.531                1
[INPUT] 1    0    [6    /1   ]  63.42             0.006044
                                14.66             0.041799
                                4.459             0.161143
                                1.531             0.356731
                                0.5302            0.448309
                                0.175             0.24494
[INPUT] 1    0    [1    /1   ]  0.5302               1
[INPUT] 1    0    [1    /1   ]  0.175                1
[INPUT] 1    0    [1    /1   ]  0.05348              1
[INPUT] 1    0    [1    /1   ]  0.0163               1
[INPUT] 2    0    [1    /1   ]  39.239               1
[INPUT] 2    0    [1    /1   ]  11.469               1
[INPUT] 2    0    [1    /1   ]  3.775                1
[INPUT] 2    0    [1    /1   ]  1.3                  1
[INPUT] 2    0    [1    /1   ]  0.444                1
[INPUT] 2    0    [1    /1   ]  0.154                1
[INPUT] 2    0    [1    /1   ]  0.0534               1
[INPUT] 3    0    [1    /1   ]  12.163               1
[INPUT] 3    0    [1    /1   ]  2.666                1
[INPUT] 3    0    [1    /1   ]  0.859                1
[INPUT] 3    0    [1    /1   ]  0.324                1
[INPUT] 3    0    [1    /1   ]  0.122                1
[INPUT] 4    0    [1    /1   ]  1.846                1
[INPUT] 4    0    [1    /1   ]  0.714                1
[INPUT] 4    0    [1    /1   ]  0.276                1

nuclear repulsion = 0
point group symmetry = SO3, use subgroup D2h
symmetry origin: [0. 0. 0.]
symmetry axis x: [1. 0. 0.]
symmetry axis y: [0. 1. 0.]
symmetry axis z: [0. 0. 1.]
num. orbitals of irrep Ag = 33
num. orbitals of irrep B1g = 13
num. orbitals of irrep B2g = 13
num. orbitals of irrep B3g = 13
num. orbitals of irrep Au = 5
num. orbitals of irrep B1u = 19
num. orbitals of irrep B2u = 19
num. orbitals of irrep B3u = 19
number of shells = 33
number of NR pGTOs = 159
number of NR cGTOs = 134
basis = {'O': [[0, [71.206, 1.0]], [0, [27.314, 1.0]], [0, [61420.0, 9e-05, -2e-05], [9199.0, 0.000698, -0.000159], [2091.0, 0.003664, -0.000829], [590.9, 0.015218, -0.003508], [192.3, 0.052423, -0.012156], [69.32, 0.145921, -0.036261], [26.97, 0.305258, -0.082992], [11.1, 0.398508, -0.15209], [4.682, 0.21698, -0.115331], [1.428, 0.017594, 0.288979], [0.5547, -0.002502, 0.586128], [0.2067, 0.000954, 0.277624]], [0, [10.478, 1.0]], [0, [1.428, 1.0]], [0, [0.5547, 1.0]], [0, [0.2067, 1.0]], [0, [0.06959, 1.0]], [0, [0.0234, 1.0]], [1, [94.398, 1.0]], [1, [32.459, 1.0]], [1, [11.161, 1.0]], [1, [1.531, 1.0]], [1, [63.42, 0.006044], [14.66, 0.041799], [4.459, 0.161143], [1.531, 0.356731], [0.5302, 0.448309], [0.175, 0.24494]], [1, [0.5302, 1.0]], [1, [0.175, 1.0]], [1, [0.05348, 1.0]], [1, [0.0163, 1.0]], [2, [39.239, 1.0]], [2, [11.469, 1.0]], [2, [3.775, 1.0]], [2, [1.3, 1.0]], [2, [0.444, 1.0]], [2, [0.154, 1.0]], [2, [0.0534, 1.0]], [3, [12.163, 1.0]], [3, [2.666, 1.0]], [3, [0.859, 1.0]], [3, [0.324, 1.0]], [3, [0.122, 1.0]], [4, [1.846, 1.0]], [4, [0.714, 1.0]], [4, [0.276, 1.0]]]}
ecp = {}
bas 0, expnt(s) = [71.206]
bas 1, expnt(s) = [27.314]
bas 2, expnt(s) = [6.142e+04 9.199e+03 2.091e+03 5.909e+02 1.923e+02 6.932e+01 2.697e+01
 1.110e+01 4.682e+00 1.428e+00 5.547e-01 2.067e-01]
bas 3, expnt(s) = [10.478]
bas 4, expnt(s) = [1.428]
bas 5, expnt(s) = [0.5547]
bas 6, expnt(s) = [0.2067]
bas 7, expnt(s) = [0.06959]
bas 8, expnt(s) = [0.0234]
bas 9, expnt(s) = [94.398]
bas 10, expnt(s) = [32.459]
bas 11, expnt(s) = [11.161]
bas 12, expnt(s) = [1.531]
bas 13, expnt(s) = [63.42   14.66    4.459   1.531   0.5302  0.175 ]
bas 14, expnt(s) = [0.5302]
bas 15, expnt(s) = [0.175]
bas 16, expnt(s) = [0.05348]
bas 17, expnt(s) = [0.0163]
bas 18, expnt(s) = [39.239]
bas 19, expnt(s) = [11.469]
bas 20, expnt(s) = [3.775]
bas 21, expnt(s) = [1.3]
bas 22, expnt(s) = [0.444]
bas 23, expnt(s) = [0.154]
bas 24, expnt(s) = [0.0534]
bas 25, expnt(s) = [12.163]
bas 26, expnt(s) = [2.666]
bas 27, expnt(s) = [0.859]
bas 28, expnt(s) = [0.324]
bas 29, expnt(s) = [0.122]
bas 30, expnt(s) = [1.846]
bas 31, expnt(s) = [0.714]
bas 32, expnt(s) = [0.276]
CPU time:         0.77
arg.atm = [[ 8 20  1 23  0  0]]
arg.bas = [[  0   0   1   1   0  24  25   0]
 [  0   0   1   1   0  26  27   0]
 [  0   0  12   2   0  28  40   0]
 [  0   0   1   1   0  64  65   0]
 [  0   0   1   1   0  66  67   0]
 [  0   0   1   1   0  68  69   0]
 [  0   0   1   1   0  70  71   0]
 [  0   0   1   1   0  72  73   0]
 [  0   0   1   1   0  74  75   0]
 [  0   1   1   1   0  76  77   0]
 [  0   1   1   1   0  78  79   0]
 [  0   1   1   1   0  80  81   0]
 [  0   1   1   1   0  82  83   0]
 [  0   1   6   1   0  84  90   0]
 [  0   1   1   1   0  96  97   0]
 [  0   1   1   1   0  98  99   0]
 [  0   1   1   1   0 100 101   0]
 [  0   1   1   1   0 102 103   0]
 [  0   2   1   1   0 104 105   0]
 [  0   2   1   1   0 106 107   0]
 [  0   2   1   1   0 108 109   0]
 [  0   2   1   1   0 110 111   0]
 [  0   2   1   1   0 112 113   0]
 [  0   2   1   1   0 114 115   0]
 [  0   2   1   1   0 116 117   0]
 [  0   3   1   1   0 118 119   0]
 [  0   3   1   1   0 120 121   0]
 [  0   3   1   1   0 122 123   0]
 [  0   3   1   1   0 124 125   0]
 [  0   3   1   1   0 126 127   0]
 [  0   4   1   1   0 128 129   0]
 [  0   4   1   1   0 130 131   0]
 [  0   4   1   1   0 132 133   0]]
arg.env = [ 0.00000000e+00  0.00000000e+00  0.00000000e+00  0.00000000e+00
  0.00000000e+00  0.00000000e+00  0.00000000e+00  0.00000000e+00
  0.00000000e+00  0.00000000e+00  0.00000000e+00  0.00000000e+00
  0.00000000e+00  0.00000000e+00  0.00000000e+00  0.00000000e+00
  0.00000000e+00  0.00000000e+00  0.00000000e+00  0.00000000e+00
  0.00000000e+00  0.00000000e+00  0.00000000e+00  0.00000000e+00
  7.12060000e+01  6.19301977e+01  2.73140000e+01  3.01858912e+01
  6.14200000e+04  9.19900000e+03  2.09100000e+03  5.90900000e+02
  1.92300000e+02  6.93200000e+01  2.69700000e+01  1.11000000e+01
  4.68200000e+00  1.42800000e+00  5.54700000e-01  2.06700000e-01
  8.87135990e-01  1.65644194e+00  2.86243952e+00  4.60795684e+00
  6.83945763e+00  8.85680418e+00  9.12731616e+00  6.12272295e+00
  1.74485198e+00  5.80665567e-02 -4.06299474e-03  7.38871750e-04
 -1.97141210e-01 -3.77326799e-01 -6.47642168e-01 -1.06220940e+00
 -1.58595265e+00 -2.20089212e+00 -2.48148699e+00 -2.33672689e+00
 -9.27437554e-01  9.53734520e-01  9.51811956e-01  2.15019292e-01
  1.04780000e+01  1.47137651e+01  1.42800000e+00  3.30035897e+00
  5.54700000e-01  1.62389763e+00  2.06700000e-01  7.74498145e-01
  6.95900000e-02  3.42314386e-01  2.34000000e-02  1.51156531e-01
  9.43980000e+01  8.58396393e+02  3.24590000e+01  2.26023353e+02
  1.11610000e+01  5.95131966e+01  1.53100000e+00  4.96824931e+00
  6.34200000e+01  1.46600000e+01  4.45900000e+00  1.53100000e+00
  5.30200000e-01  1.75000000e-01  3.15566852e+00  3.49798127e+00
  3.04608775e+00  1.77232745e+00  5.91713172e-01  8.08800478e-02
  5.30200000e-01  1.31987878e+00  1.75000000e-01  3.30203714e-01
  5.34800000e-02  7.50280468e-02  1.63000000e-02  1.69909984e-02
  3.92390000e+01  1.60522445e+03  1.14690000e+01  1.86508704e+02
  3.77500000e+00  2.66768200e+01  1.30000000e+00  4.12981172e+00
  4.44000000e-01  6.30158188e-01  1.54000000e-01  9.87849189e-02
  5.34000000e-02  1.54784185e-02  1.21630000e+01  5.44944096e+02
  2.66600000e+00  1.79141286e+01  8.59000000e-01  1.40118339e+00
  3.24000000e-01  1.56220000e-01  1.22000000e-01  1.73508191e-02
  1.84600000e+00  7.09669709e+00  7.14000000e-01  5.20701927e-01
  2.76000000e-01  3.81433715e-02]
ecpbas  = []


******** <class 'pyscf.scf.uhf_symm.SymAdaptedUHF'> ********
method = SymAdaptedUHF
initial guess = atom
damping factor = 0
level_shift factor = 0
DIIS = <class 'pyscf.scf.diis.CDIIS'>
diis_start_cycle = 1
diis_space = 8
diis_damp = 0
SCF conv_tol = 1e-13
SCF conv_tol_grad = None
SCF ddm_tol = 1e-12
SCF max_cycles = 9999
direct_scf = False
chkfile to save SCF result = out.chk
max_memory 16000 MB (current use 129 MB)
number electrons alpha = 5  beta = 2
irrep_nelec {'Ag': 4, 'B3u': 1, 'B2u': 1, 'B1u': 1}
Freeze 7 electrons in irreps ['Ag', 'B3u', 'B2u', 'B1u']
    0 free electrons in irreps B1g B2g B3g Au
cond(S) = 132037.86406714446

WARN: Singularity detected in overlap matrix (condition number = 1.32e+05). SCF may be inaccurate and hard to converge.

Set gradient conv threshold to 3.16228e-07
Spherically averaged atomic HF for {'O'}


******** <class '__main__.CustomAtomSphAverageRHF'> ********
method = CustomAtomSphAverageRHF
initial guess = minao
damping factor = 0
level_shift factor = 0
DIIS = <class 'pyscf.scf.diis.CDIIS'>
diis_start_cycle = 1
diis_space = 8
diis_damp = 0
SCF conv_tol = 1e-09
SCF conv_tol_grad = None
SCF ddm_tol = 1e-10
SCF max_cycles = 9999
direct_scf = False
chkfile to save SCF result = /tmp/tmpcwlr9ln_
max_memory 16000 MB (current use 131 MB)
atom = O
Set gradient conv threshold to 3.16228e-05
Initial guess from minao.
Nelec from initial guess = 7.99990805070434
E1 = -103.09156025187767  E_coul = 28.805609298082768
init E= -74.2859509537949
l = 0  e_0 = -20.7014318
l = 0  e_1 = -1.26312609
l = 0  e_2 = 0.0378581929
l = 0  e_3 = 0.226683116
l = 0  e_4 = 0.977113391
l = 0  e_5 = 3.75896007
l = 0  e_6 = 14.3598476
l = 0  e_7 = 50.0675369
l = 0  e_8 = 163.988542
l = 0  e_9 = 671.760939
l = 1  e_0 = -0.390871697
l = 1  e_1 = 0.0386559145
l = 1  e_2 = 0.185713875
l = 1  e_3 = 0.753697334
l = 1  e_4 = 2.71280193
l = 1  e_5 = 8.99437498
l = 1  e_6 = 28.2514438
l = 1  e_7 = 90.1888788
l = 1  e_8 = 294.587574
l = 2  e_0 = 0.171346662
l = 2  e_1 = 0.584634021
l = 2  e_2 = 1.60423491
l = 2  e_3 = 4.34283305
l = 2  e_4 = 12.4948808
l = 2  e_5 = 39.2631738
l = 2  e_6 = 140.182589
l = 3  e_0 = 0.510043294
l = 3  e_1 = 1.57508141
l = 3  e_2 = 4.17989554
l = 3  e_3 = 11.8469575
l = 3  e_4 = 49.211896
l = 4  e_0 = 1.42693601
l = 4  e_1 = 4.13683004
l = 4  e_2 = 10.8514772
    CPU time for initialize scf      1.25 sec, wall time      0.32 sec
l = 0  e_0 = -20.7014318
l = 0  e_1 = -1.26312609
l = 0  e_2 = 0.0378581929
l = 0  e_3 = 0.226683116
l = 0  e_4 = 0.977113391
l = 0  e_5 = 3.75896007
l = 0  e_6 = 14.3598476
l = 0  e_7 = 50.0675369
l = 0  e_8 = 163.988542
l = 0  e_9 = 671.760939
l = 1  e_0 = -0.390871697
l = 1  e_1 = 0.0386559145
l = 1  e_2 = 0.185713875
l = 1  e_3 = 0.753697334
l = 1  e_4 = 2.71280193
l = 1  e_5 = 8.99437498
l = 1  e_6 = 28.2514438
l = 1  e_7 = 90.1888788
l = 1  e_8 = 294.587574
l = 2  e_0 = 0.171346662
l = 2  e_1 = 0.584634021
l = 2  e_2 = 1.60423491
l = 2  e_3 = 4.34283305
l = 2  e_4 = 12.4948808
l = 2  e_5 = 39.2631738
l = 2  e_6 = 140.182589
l = 3  e_0 = 0.510043294
l = 3  e_1 = 1.57508141
l = 3  e_2 = 4.17989554
l = 3  e_3 = 11.8469575
l = 3  e_4 = 49.211896
l = 4  e_0 = 1.42693601
l = 4  e_1 = 4.13683004
l = 4  e_2 = 10.8514772
l = 0  occ = 2 + 0
l = 1  occ = 0 + 1.333
l = 2  occ = 0 + 0
l = 3  occ = 0 + 0
E1 = -102.38203234312945  E_coul = 28.08731691123571
cycle= 1 E= -74.2947154318937  delta_E= -0.00876  |g|=    0  |ddm|= 0.195
    CPU time for cycle= 1      0.16 sec, wall time      0.04 sec
diis-norm(errvec)=0.136165
diis-c [-0.0185408  1.       ]
l = 0  e_0 = -20.8772624
l = 0  e_1 = -1.33293644
l = 0  e_2 = 0.0369571984
l = 0  e_3 = 0.220677866
l = 0  e_4 = 0.954489139
l = 0  e_5 = 3.69798562
l = 0  e_6 = 14.243238
l = 0  e_7 = 49.9096434
l = 0  e_8 = 163.806798
l = 0  e_9 = 671.560726
l = 1  e_0 = -0.44733786
l = 1  e_1 = 0.038475834
l = 1  e_2 = 0.182834763
l = 1  e_3 = 0.735465703
l = 1  e_4 = 2.65777271
l = 1  e_5 = 8.89146276
l = 1  e_6 = 28.1066655
l = 1  e_7 = 90.015684
l = 1  e_8 = 294.39705
l = 2  e_0 = 0.170978238
l = 2  e_1 = 0.578446672
l = 2  e_2 = 1.57908066
l = 2  e_3 = 4.28371736
l = 2  e_4 = 12.3882072
l = 2  e_5 = 39.1121751
l = 2  e_6 = 140.00365
l = 3  e_0 = 0.509273807
l = 3  e_1 = 1.56629139
l = 3  e_2 = 4.1444659
l = 3  e_3 = 11.7585928
l = 3  e_4 = 49.057688
l = 4  e_0 = 1.42402181
l = 4  e_1 = 4.1169688
l = 4  e_2 = 10.7889797
l = 0  occ = 2 + 0
l = 1  occ = 0 + 1.333
l = 2  occ = 0 + 0
l = 3  occ = 0 + 0
E1 = -102.75325354349422  E_coul = 28.457272743872405
cycle= 2 E= -74.2959807996218  delta_E= -0.00127  |g|=    0  |ddm|= 0.0641
    CPU time for cycle= 2      0.17 sec, wall time      0.04 sec
diis-norm(errvec)=0.059217
diis-c [-3.09380134e-04  2.95166166e-01  7.04833834e-01]
l = 0  e_0 = -20.8121899
l = 0  e_1 = -1.31044935
l = 0  e_2 = 0.0372902199
l = 0  e_3 = 0.222541394
l = 0  e_4 = 0.961608751
l = 0  e_5 = 3.71904209
l = 0  e_6 = 14.2856006
l = 0  e_7 = 49.9679634
l = 0  e_8 = 163.874297
l = 0  e_9 = 671.633938
l = 1  e_0 = -0.425809409
l = 1  e_1 = 0.0385543804
l = 1  e_2 = 0.184005845
l = 1  e_3 = 0.742458876
l = 1  e_4 = 2.67828125
l = 1  e_5 = 8.92946845
l = 1  e_6 = 28.1599775
l = 1  e_7 = 90.0796813
l = 1  e_8 = 294.467566
l = 2  e_0 = 0.1711571
l = 2  e_1 = 0.580641789
l = 2  e_2 = 1.58818399
l = 2  e_3 = 4.30538806
l = 2  e_4 = 12.4276224
l = 2  e_5 = 39.1680704
l = 2  e_6 = 140.070086
l = 3  e_0 = 0.509613784
l = 3  e_1 = 1.56941353
l = 3  e_2 = 4.15720603
l = 3  e_3 = 11.7910714
l = 3  e_4 = 49.1147533
l = 4  e_0 = 1.42513459
l = 4  e_1 = 4.1239816
l = 4  e_2 = 10.8116852
l = 0  occ = 2 + 0
l = 1  occ = 0 + 1.333
l = 2  occ = 0 + 0
l = 3  occ = 0 + 0
E1 = -102.6205735231858  E_coul = 28.324204850771157
cycle= 3 E= -74.2963686724146  delta_E= -0.000388  |g|=    0  |ddm|= 0.0277
    CPU time for cycle= 3      0.17 sec, wall time      0.04 sec
diis-norm(errvec)=0.00672668
diis-c [-1.50299757e-06 -9.86298650e-02 -1.09836955e-01  1.20846682e+00]
l = 0  e_0 = -20.8155978
l = 0  e_1 = -1.31261594
l = 0  e_2 = 0.0372647147
l = 0  e_3 = 0.222330516
l = 0  e_4 = 0.960905518
l = 0  e_5 = 3.71755832
l = 0  e_6 = 14.2831458
l = 0  e_7 = 49.9648241
l = 0  e_8 = 163.871051
l = 0  e_9 = 671.631084
l = 1  e_0 = -0.426734127
l = 1  e_1 = 0.0385528238
l = 1  e_2 = 0.18396668
l = 1  e_3 = 0.742140983
l = 1  e_4 = 2.67727737
l = 1  e_5 = 8.92746885
l = 1  e_6 = 28.1570807
l = 1  e_7 = 90.0763418
l = 1  e_8 = 294.464394
l = 2  e_0 = 0.17115383
l = 2  e_1 = 0.580494147
l = 2  e_2 = 1.58767263
l = 2  e_3 = 4.30422858
l = 2  e_4 = 12.425534
l = 2  e_5 = 39.1650203
l = 2  e_6 = 140.066659
l = 3  e_0 = 0.509602522
l = 3  e_1 = 1.56921131
l = 3  e_2 = 4.15647786
l = 3  e_3 = 11.7893524
l = 3  e_4 = 49.1116073
l = 4  e_0 = 1.42507237
l = 4  e_1 = 4.12353947
l = 4  e_2 = 10.8104519
l = 0  occ = 2 + 0
l = 1  occ = 0 + 1.333
l = 2  occ = 0 + 0
l = 3  occ = 0 + 0
E1 = -102.62845888844986  E_coul = 28.33208579752303
cycle= 4 E= -74.2963730909268  delta_E= -4.42e-06  |g|=    0  |ddm|= 0.00377
    CPU time for cycle= 4      0.17 sec, wall time      0.04 sec
diis-norm(errvec)=0.000231781
diis-c [-3.97563774e-09  1.74998733e-03  2.53577171e-03 -5.17075083e-02
  1.04742175e+00]
l = 0  e_0 = -20.8157246
l = 0  e_1 = -1.31270263
l = 0  e_2 = 0.0372600505
l = 0  e_3 = 0.222312597
l = 0  e_4 = 0.96086261
l = 0  e_5 = 3.71747919
l = 0  e_6 = 14.283036
l = 0  e_7 = 49.9647004
l = 0  e_8 = 163.870937
l = 0  e_9 = 671.631002
l = 1  e_0 = -0.42678434
l = 1  e_1 = 0.0385522562
l = 1  e_2 = 0.183959653
l = 1  e_3 = 0.74211062
l = 1  e_4 = 2.67721341
l = 1  e_5 = 8.92737244
l = 1  e_6 = 28.156962
l = 1  e_7 = 90.0762177
l = 1  e_8 = 294.464288
l = 2  e_0 = 0.171150915
l = 2  e_1 = 0.580477641
l = 2  e_2 = 1.58763336
l = 2  e_3 = 4.30415685
l = 2  e_4 = 12.4254325
l = 2  e_5 = 39.1648956
l = 2  e_6 = 140.066534
l = 3  e_0 = 0.509597065
l = 3  e_1 = 1.5691871
l = 3  e_2 = 4.1564224
l = 3  e_3 = 11.7892604
l = 3  e_4 = 49.111479
l = 4  e_0 = 1.42505857
l = 4  e_1 = 4.12349689
l = 4  e_2 = 10.8103746
l = 0  occ = 2 + 0
l = 1  occ = 0 + 1.333
l = 2  occ = 0 + 0
l = 3  occ = 0 + 0
E1 = -102.62874685818784  E_coul = 28.33237376057184
cycle= 5 E= -74.296373097616  delta_E= -6.69e-09  |g|=    0  |ddm|= 0.000115
    CPU time for cycle= 5      0.17 sec, wall time      0.04 sec
diis-norm(errvec)=1.13322e-05
diis-c [-1.33473488e-11 -1.09191549e-04 -2.71676217e-04  6.93480439e-03
 -2.02429723e-01  1.19587579e+00]
l = 0  e_0 = -20.8157252
l = 0  e_1 = -1.31270537
l = 0  e_2 = 0.0372594754
l = 0  e_3 = 0.222311307
l = 0  e_4 = 0.960860905
l = 0  e_5 = 3.717477
l = 0  e_6 = 14.2830348
l = 0  e_7 = 49.9646997
l = 0  e_8 = 163.870936
l = 0  e_9 = 671.631001
l = 1  e_0 = -0.426785934
l = 1  e_1 = 0.0385522125
l = 1  e_2 = 0.18395909
l = 1  e_3 = 0.742108823
l = 1  e_4 = 2.67721123
l = 1  e_5 = 8.92737086
l = 1  e_6 = 28.1569612
l = 1  e_7 = 90.076217
l = 1  e_8 = 294.464287
l = 2  e_0 = 0.171150444
l = 2  e_1 = 0.580476087
l = 2  e_2 = 1.5876312
l = 2  e_3 = 4.30415442
l = 2  e_4 = 12.4254313
l = 2  e_5 = 39.164895
l = 2  e_6 = 140.066533
l = 3  e_0 = 0.509596247
l = 3  e_1 = 1.56918481
l = 3  e_2 = 4.15641951
l = 3  e_3 = 11.7892588
l = 3  e_4 = 49.1114786
l = 4  e_0 = 1.4250568
l = 4  e_1 = 4.12349371
l = 4  e_2 = 10.8103722
l = 0  occ = 2 + 0
l = 1  occ = 0 + 1.333
l = 2  occ = 0 + 0
l = 3  occ = 0 + 0
E1 = -102.62873279742017  E_coul = 28.33235969973484
cycle= 6 E= -74.2963730976853  delta_E= -6.93e-11  |g|=    0  |ddm|= 9.36e-06
    CPU time for cycle= 6      0.17 sec, wall time      0.04 sec
diis-norm(errvec)=1.48292e-06
diis-c [-1.09702701e-13 -5.61118352e-06  1.37562852e-05 -7.42628309e-05
  2.43050067e-03 -4.85177004e-02  1.04615332e+00]
l = 0  e_0 = -20.8157264
l = 0  e_1 = -1.3127061
l = 0  e_2 = 0.037259441
l = 0  e_3 = 0.222311192
l = 0  e_4 = 0.960860598
l = 0  e_5 = 3.71747633
l = 0  e_6 = 14.2830338
l = 0  e_7 = 49.9646985
l = 0  e_8 = 163.870935
l = 0  e_9 = 671.631
l = 1  e_0 = -0.426786535
l = 1  e_1 = 0.0385522083
l = 1  e_2 = 0.183959035
l = 1  e_3 = 0.742108556
l = 1  e_4 = 2.67721061
l = 1  e_5 = 8.92736991
l = 1  e_6 = 28.15696
l = 1  e_7 = 90.0762158
l = 1  e_8 = 294.464286
l = 2  e_0 = 0.171150419
l = 2  e_1 = 0.580475946
l = 2  e_2 = 1.58763082
l = 2  e_3 = 4.30415372
l = 2  e_4 = 12.4254303
l = 2  e_5 = 39.1648938
l = 2  e_6 = 140.066532
l = 3  e_0 = 0.509596202
l = 3  e_1 = 1.56918461
l = 3  e_2 = 4.15641898
l = 3  e_3 = 11.7892579
l = 3  e_4 = 49.1114774
l = 4  e_0 = 1.42505669
l = 4  e_1 = 4.12349332
l = 4  e_2 = 10.8103714
l = 0  occ = 2 + 0
l = 1  occ = 0 + 1.333
l = 2  occ = 0 + 0
l = 3  occ = 0 + 0
E1 = -102.62873497022147  E_coul = 28.332361872535884
cycle= 7 E= -74.2963730976856  delta_E= -2.56e-13  |g|=    0  |ddm|= 6.03e-07
    CPU time for cycle= 7      0.17 sec, wall time      0.04 sec
diis-norm(errvec)=5.06119e-08
diis-c [-2.78584271e-16  1.02169778e-06 -3.18703787e-07 -1.23087236e-05
  3.59144440e-04  2.04956389e-03 -1.31385058e-01  1.12898796e+00]
l = 0  e_0 = -20.8157264
l = 0  e_1 = -1.31270611
l = 0  e_2 = 0.0372594399
l = 0  e_3 = 0.22231119
l = 0  e_4 = 0.960860589
l = 0  e_5 = 3.71747631
l = 0  e_6 = 14.2830338
l = 0  e_7 = 49.9646985
l = 0  e_8 = 163.870935
l = 0  e_9 = 671.631
l = 1  e_0 = -0.426786552
l = 1  e_1 = 0.0385522082
l = 1  e_2 = 0.183959034
l = 1  e_3 = 0.742108549
l = 1  e_4 = 2.67721059
l = 1  e_5 = 8.92736989
l = 1  e_6 = 28.15696
l = 1  e_7 = 90.0762158
l = 1  e_8 = 294.464286
l = 2  e_0 = 0.171150419
l = 2  e_1 = 0.580475941
l = 2  e_2 = 1.58763081
l = 2  e_3 = 4.3041537
l = 2  e_4 = 12.4254303
l = 2  e_5 = 39.1648938
l = 2  e_6 = 140.066532
l = 3  e_0 = 0.509596201
l = 3  e_1 = 1.5691846
l = 3  e_2 = 4.15641896
l = 3  e_3 = 11.7892578
l = 3  e_4 = 49.1114773
l = 4  e_0 = 1.42505668
l = 4  e_1 = 4.12349331
l = 4  e_2 = 10.8103714
l = 0  occ = 2 + 0
l = 1  occ = 0 + 1.333
l = 2  occ = 0 + 0
l = 3  occ = 0 + 0
E1 = -102.62873499269094  E_coul = 28.33236189500539
cycle= 8 E= -74.2963730976855  delta_E= 4.26e-14  |g|=    0  |ddm|= 8.5e-08
    CPU time for cycle= 8      0.17 sec, wall time      0.04 sec
diis-norm(errvec)=1.48666e-09
Linear dependence found in DIIS error vectors.
diis-c [-9.54468634e-16  4.24768416e-07 -1.98876105e-08 -6.55631928e-06
  1.93256745e-04  4.87108266e-04 -5.07023252e-02  4.89289508e-01
  5.60738604e-01]
l = 0  e_0 = -20.8157264
l = 0  e_1 = -1.31270611
l = 0  e_2 = 0.03725944
l = 0  e_3 = 0.22231119
l = 0  e_4 = 0.960860589
l = 0  e_5 = 3.71747631
l = 0  e_6 = 14.2830338
l = 0  e_7 = 49.9646985
l = 0  e_8 = 163.870935
l = 0  e_9 = 671.631
l = 1  e_0 = -0.426786552
l = 1  e_1 = 0.0385522082
l = 1  e_2 = 0.183959034
l = 1  e_3 = 0.742108549
l = 1  e_4 = 2.67721059
l = 1  e_5 = 8.92736989
l = 1  e_6 = 28.15696
l = 1  e_7 = 90.0762158
l = 1  e_8 = 294.464286
l = 2  e_0 = 0.171150419
l = 2  e_1 = 0.580475941
l = 2  e_2 = 1.58763081
l = 2  e_3 = 4.3041537
l = 2  e_4 = 12.4254303
l = 2  e_5 = 39.1648938
l = 2  e_6 = 140.066532
l = 3  e_0 = 0.509596201
l = 3  e_1 = 1.5691846
l = 3  e_2 = 4.15641896
l = 3  e_3 = 11.7892578
l = 3  e_4 = 49.1114773
l = 4  e_0 = 1.42505668
l = 4  e_1 = 4.12349331
l = 4  e_2 = 10.8103714
l = 0  occ = 2 + 0
l = 1  occ = 0 + 1.333
l = 2  occ = 0 + 0
l = 3  occ = 0 + 0
E1 = -102.62873499223838  E_coul = 28.332361894552825
cycle= 9 E= -74.2963730976855  delta_E=    0  |g|=    0  |ddm|= 4.93e-10
    CPU time for cycle= 9      0.17 sec, wall time      0.04 sec
diis-norm(errvec)=9.37392e-10
Linear dependence found in DIIS error vectors.
diis-c [-7.53110723e-16  3.60629054e-01 -4.86450616e-07  2.11242077e-06
  2.53125344e-05  9.58911454e-04 -3.76456355e-02  3.15550867e-01
  3.60479864e-01]
l = 0  e_0 = -20.8157264
l = 0  e_1 = -1.31270611
l = 0  e_2 = 0.03725944
l = 0  e_3 = 0.22231119
l = 0  e_4 = 0.960860589
l = 0  e_5 = 3.71747631
l = 0  e_6 = 14.2830338
l = 0  e_7 = 49.9646985
l = 0  e_8 = 163.870935
l = 0  e_9 = 671.631
l = 1  e_0 = -0.426786552
l = 1  e_1 = 0.0385522082
l = 1  e_2 = 0.183959034
l = 1  e_3 = 0.742108549
l = 1  e_4 = 2.67721059
l = 1  e_5 = 8.92736989
l = 1  e_6 = 28.15696
l = 1  e_7 = 90.0762158
l = 1  e_8 = 294.464286
l = 2  e_0 = 0.171150419
l = 2  e_1 = 0.580475941
l = 2  e_2 = 1.58763081
l = 2  e_3 = 4.3041537
l = 2  e_4 = 12.4254303
l = 2  e_5 = 39.1648938
l = 2  e_6 = 140.066532
l = 3  e_0 = 0.509596201
l = 3  e_1 = 1.5691846
l = 3  e_2 = 4.15641897
l = 3  e_3 = 11.7892578
l = 3  e_4 = 49.1114773
l = 4  e_0 = 1.42505668
l = 4  e_1 = 4.12349331
l = 4  e_2 = 10.8103714
l = 0  occ = 2 + 0
l = 1  occ = 0 + 1.333
l = 2  occ = 0 + 0
l = 3  occ = 0 + 0
E1 = -102.62873499076353  E_coul = 28.332361893077934
cycle= 10 E= -74.2963730976856  delta_E= -5.68e-14  |g|=    0  |ddm|= 3.46e-10
    CPU time for cycle= 10      0.17 sec, wall time      0.04 sec
diis-norm(errvec)=8.53304e-10
Linear dependence found in DIIS error vectors.
diis-c [-3.29112745e-17  2.58702542e-01  2.58778736e-01 -3.53019429e-06
  1.74312285e-04 -5.85291316e-04 -1.52871821e-02  2.39596610e-01
  2.58623804e-01]
l = 0  e_0 = -20.8157264
l = 0  e_1 = -1.31270611
l = 0  e_2 = 0.03725944
l = 0  e_3 = 0.22231119
l = 0  e_4 = 0.960860589
l = 0  e_5 = 3.71747631
l = 0  e_6 = 14.2830338
l = 0  e_7 = 49.9646985
l = 0  e_8 = 163.870935
l = 0  e_9 = 671.631
l = 1  e_0 = -0.426786552
l = 1  e_1 = 0.0385522082
l = 1  e_2 = 0.183959034
l = 1  e_3 = 0.742108549
l = 1  e_4 = 2.67721059
l = 1  e_5 = 8.92736989
l = 1  e_6 = 28.15696
l = 1  e_7 = 90.0762158
l = 1  e_8 = 294.464286
l = 2  e_0 = 0.171150419
l = 2  e_1 = 0.580475941
l = 2  e_2 = 1.58763081
l = 2  e_3 = 4.3041537
l = 2  e_4 = 12.4254303
l = 2  e_5 = 39.1648938
l = 2  e_6 = 140.066532
l = 3  e_0 = 0.509596201
l = 3  e_1 = 1.5691846
l = 3  e_2 = 4.15641897
l = 3  e_3 = 11.7892578
l = 3  e_4 = 49.1114773
l = 4  e_0 = 1.42505668
l = 4  e_1 = 4.12349331
l = 4  e_2 = 10.8103714
l = 0  occ = 2 + 0
l = 1  occ = 0 + 1.333
l = 2  occ = 0 + 0
l = 3  occ = 0 + 0
E1 = -102.6287349912604  E_coul = 28.332361893574753
cycle= 11 E= -74.2963730976856  delta_E= -4.26e-14  |g|=    0  |ddm|= 7.24e-10
    CPU time for cycle= 11      0.17 sec, wall time      0.04 sec
diis-norm(errvec)=9.2613e-10
Linear dependence found in DIIS error vectors.
diis-c [-8.00673824e-16  2.04552601e-01  2.04562504e-01  2.04547540e-01
  4.69950010e-05 -2.64579366e-05 -1.09930674e-02  1.92786974e-01
  2.04522911e-01]
l = 0  e_0 = -20.8157264
l = 0  e_1 = -1.31270611
l = 0  e_2 = 0.03725944
l = 0  e_3 = 0.22231119
l = 0  e_4 = 0.960860589
l = 0  e_5 = 3.71747631
l = 0  e_6 = 14.2830338
l = 0  e_7 = 49.9646985
l = 0  e_8 = 163.870935
l = 0  e_9 = 671.631
l = 1  e_0 = -0.426786552
l = 1  e_1 = 0.0385522082
l = 1  e_2 = 0.183959034
l = 1  e_3 = 0.742108549
l = 1  e_4 = 2.67721059
l = 1  e_5 = 8.92736989
l = 1  e_6 = 28.15696
l = 1  e_7 = 90.0762158
l = 1  e_8 = 294.464286
l = 2  e_0 = 0.171150419
l = 2  e_1 = 0.580475941
l = 2  e_2 = 1.58763081
l = 2  e_3 = 4.3041537
l = 2  e_4 = 12.4254303
l = 2  e_5 = 39.1648938
l = 2  e_6 = 140.066532
l = 3  e_0 = 0.509596201
l = 3  e_1 = 1.5691846
l = 3  e_2 = 4.15641897
l = 3  e_3 = 11.7892578
l = 3  e_4 = 49.1114773
l = 4  e_0 = 1.42505668
l = 4  e_1 = 4.12349331
l = 4  e_2 = 10.8103714
l = 0  occ = 2 + 0
l = 1  occ = 0 + 1.333
l = 2  occ = 0 + 0
l = 3  occ = 0 + 0
E1 = -102.62873498918509  E_coul = 28.332361891499687
cycle= 12 E= -74.2963730976854  delta_E= 2.42e-13  |g|=    0  |ddm|= 6.07e-10
    CPU time for cycle= 12      0.17 sec, wall time      0.04 sec
diis-norm(errvec)=1.93168e-09
Linear dependence found in DIIS error vectors.
diis-c [-8.33833711e-16  1.68077741e-01  1.68003455e-01  1.68016179e-01
  1.67875026e-01  8.84961675e-05 -4.30697880e-03  1.64138894e-01
  1.68107188e-01]
l = 0  e_0 = -20.8157264
l = 0  e_1 = -1.31270611
l = 0  e_2 = 0.03725944
l = 0  e_3 = 0.22231119
l = 0  e_4 = 0.960860589
l = 0  e_5 = 3.71747631
l = 0  e_6 = 14.2830338
l = 0  e_7 = 49.9646985
l = 0  e_8 = 163.870935
l = 0  e_9 = 671.631
l = 1  e_0 = -0.426786552
l = 1  e_1 = 0.0385522082
l = 1  e_2 = 0.183959034
l = 1  e_3 = 0.742108549
l = 1  e_4 = 2.67721059
l = 1  e_5 = 8.92736989
l = 1  e_6 = 28.15696
l = 1  e_7 = 90.0762158
l = 1  e_8 = 294.464286
l = 2  e_0 = 0.171150419
l = 2  e_1 = 0.580475941
l = 2  e_2 = 1.58763081
l = 2  e_3 = 4.3041537
l = 2  e_4 = 12.4254303
l = 2  e_5 = 39.1648938
l = 2  e_6 = 140.066532
l = 3  e_0 = 0.509596201
l = 3  e_1 = 1.5691846
l = 3  e_2 = 4.15641897
l = 3  e_3 = 11.7892578
l = 3  e_4 = 49.1114773
l = 4  e_0 = 1.42505668
l = 4  e_1 = 4.12349331
l = 4  e_2 = 10.8103714
l = 0  occ = 2 + 0
l = 1  occ = 0 + 1.333
l = 2  occ = 0 + 0
l = 3  occ = 0 + 0
E1 = -102.62873498990567  E_coul = 28.332361892220245
cycle= 13 E= -74.2963730976854  delta_E= -1.42e-14  |g|=    0  |ddm|= 4.63e-10
    CPU time for cycle= 13      0.16 sec, wall time      0.04 sec
diis-norm(errvec)=1.64867e-09
Linear dependence found in DIIS error vectors.
diis-c [-1.47601170e-16  1.43894289e-01  1.43831256e-01  1.43842375e-01
  1.43723659e-01  1.43775234e-01 -3.54738354e-03  1.40559952e-01
  1.43920619e-01]
l = 0  e_0 = -20.8157264
l = 0  e_1 = -1.31270611
l = 0  e_2 = 0.03725944
l = 0  e_3 = 0.22231119
l = 0  e_4 = 0.960860589
l = 0  e_5 = 3.71747631
l = 0  e_6 = 14.2830338
l = 0  e_7 = 49.9646985
l = 0  e_8 = 163.870935
l = 0  e_9 = 671.631
l = 1  e_0 = -0.426786552
l = 1  e_1 = 0.0385522082
l = 1  e_2 = 0.183959034
l = 1  e_3 = 0.742108549
l = 1  e_4 = 2.67721059
l = 1  e_5 = 8.92736989
l = 1  e_6 = 28.15696
l = 1  e_7 = 90.0762158
l = 1  e_8 = 294.464286
l = 2  e_0 = 0.171150419
l = 2  e_1 = 0.580475941
l = 2  e_2 = 1.58763081
l = 2  e_3 = 4.3041537
l = 2  e_4 = 12.4254303
l = 2  e_5 = 39.1648938
l = 2  e_6 = 140.066532
l = 3  e_0 = 0.509596201
l = 3  e_1 = 1.5691846
l = 3  e_2 = 4.15641897
l = 3  e_3 = 11.7892578
l = 3  e_4 = 49.1114773
l = 4  e_0 = 1.42505668
l = 4  e_1 = 4.12349331
l = 4  e_2 = 10.8103714
l = 0  occ = 2 + 0
l = 1  occ = 0 + 1.333
l = 2  occ = 0 + 0
l = 3  occ = 0 + 0
E1 = -102.6287349906832  E_coul = 28.332361892997664
cycle= 14 E= -74.2963730976855  delta_E= -1.14e-13  |g|=    0  |ddm|= 2.38e-10
    CPU time for cycle= 14      0.16 sec, wall time      0.04 sec
diis-norm(errvec)=1.24067e-09
Linear dependence found in DIIS error vectors.
diis-c [-4.1157153e-16  1.2500000e-01  1.2500000e-01  1.2500000e-01
  1.2500000e-01  1.2500000e-01  1.2500000e-01  1.2500000e-01
  1.2500000e-01]
l = 0  e_0 = -20.8157264
l = 0  e_1 = -1.31270611
l = 0  e_2 = 0.03725944
l = 0  e_3 = 0.22231119
l = 0  e_4 = 0.960860589
l = 0  e_5 = 3.71747631
l = 0  e_6 = 14.2830338
l = 0  e_7 = 49.9646985
l = 0  e_8 = 163.870935
l = 0  e_9 = 671.631
l = 1  e_0 = -0.426786553
l = 1  e_1 = 0.0385522082
l = 1  e_2 = 0.183959034
l = 1  e_3 = 0.742108549
l = 1  e_4 = 2.67721059
l = 1  e_5 = 8.92736989
l = 1  e_6 = 28.15696
l = 1  e_7 = 90.0762157
l = 1  e_8 = 294.464286
l = 2  e_0 = 0.171150419
l = 2  e_1 = 0.580475941
l = 2  e_2 = 1.58763081
l = 2  e_3 = 4.3041537
l = 2  e_4 = 12.4254303
l = 2  e_5 = 39.1648938
l = 2  e_6 = 140.066532
l = 3  e_0 = 0.509596201
l = 3  e_1 = 1.5691846
l = 3  e_2 = 4.15641897
l = 3  e_3 = 11.7892578
l = 3  e_4 = 49.1114773
l = 4  e_0 = 1.42505668
l = 4  e_1 = 4.12349331
l = 4  e_2 = 10.8103714
l = 0  occ = 2 + 0
l = 1  occ = 0 + 1.333
l = 2  occ = 0 + 0
l = 3  occ = 0 + 0
E1 = -102.62873499515315  E_coul = 28.33236189746758
cycle= 15 E= -74.2963730976856  delta_E= -4.26e-14  |g|=    0  |ddm|= 9.09e-10
    CPU time for cycle= 15      0.16 sec, wall time      0.04 sec
diis-norm(errvec)=1.63029e-09
Linear dependence found in DIIS error vectors.
diis-c [-2.89052492e-16  1.25000000e-01  1.25000000e-01  1.25000000e-01
  1.25000000e-01  1.25000000e-01  1.25000000e-01  1.25000000e-01
  1.25000000e-01]
l = 0  e_0 = -20.8157264
l = 0  e_1 = -1.31270611
l = 0  e_2 = 0.03725944
l = 0  e_3 = 0.22231119
l = 0  e_4 = 0.960860589
l = 0  e_5 = 3.71747631
l = 0  e_6 = 14.2830338
l = 0  e_7 = 49.9646985
l = 0  e_8 = 163.870935
l = 0  e_9 = 671.631
l = 1  e_0 = -0.426786552
l = 1  e_1 = 0.0385522082
l = 1  e_2 = 0.183959034
l = 1  e_3 = 0.742108549
l = 1  e_4 = 2.67721059
l = 1  e_5 = 8.92736989
l = 1  e_6 = 28.15696
l = 1  e_7 = 90.0762158
l = 1  e_8 = 294.464286
l = 2  e_0 = 0.171150419
l = 2  e_1 = 0.580475941
l = 2  e_2 = 1.58763081
l = 2  e_3 = 4.3041537
l = 2  e_4 = 12.4254303
l = 2  e_5 = 39.1648938
l = 2  e_6 = 140.066532
l = 3  e_0 = 0.509596201
l = 3  e_1 = 1.5691846
l = 3  e_2 = 4.15641897
l = 3  e_3 = 11.7892578
l = 3  e_4 = 49.1114773
l = 4  e_0 = 1.42505668
l = 4  e_1 = 4.12349331
l = 4  e_2 = 10.8103714
l = 0  occ = 2 + 0
l = 1  occ = 0 + 1.333
l = 2  occ = 0 + 0
l = 3  occ = 0 + 0
E1 = -102.62873499227622  E_coul = 28.3323618945907
cycle= 16 E= -74.2963730976855  delta_E= 5.68e-14  |g|=    0  |ddm|= 1.25e-09
    CPU time for cycle= 16      0.16 sec, wall time      0.04 sec
diis-norm(errvec)=2.1852e-10
Linear dependence found in DIIS error vectors.
diis-c [-2.89052492e-16  1.25000000e-01  1.25000000e-01  1.25000000e-01
  1.25000000e-01  1.25000000e-01  1.25000000e-01  1.25000000e-01
  1.25000000e-01]
l = 0  e_0 = -20.8157264
l = 0  e_1 = -1.31270611
l = 0  e_2 = 0.03725944
l = 0  e_3 = 0.22231119
l = 0  e_4 = 0.960860589
l = 0  e_5 = 3.71747631
l = 0  e_6 = 14.2830338
l = 0  e_7 = 49.9646985
l = 0  e_8 = 163.870935
l = 0  e_9 = 671.631
l = 1  e_0 = -0.426786552
l = 1  e_1 = 0.0385522082
l = 1  e_2 = 0.183959034
l = 1  e_3 = 0.742108549
l = 1  e_4 = 2.67721059
l = 1  e_5 = 8.92736989
l = 1  e_6 = 28.15696
l = 1  e_7 = 90.0762158
l = 1  e_8 = 294.464286
l = 2  e_0 = 0.171150419
l = 2  e_1 = 0.580475941
l = 2  e_2 = 1.58763081
l = 2  e_3 = 4.3041537
l = 2  e_4 = 12.4254303
l = 2  e_5 = 39.1648938
l = 2  e_6 = 140.066532
l = 3  e_0 = 0.509596201
l = 3  e_1 = 1.5691846
l = 3  e_2 = 4.15641897
l = 3  e_3 = 11.7892578
l = 3  e_4 = 49.1114773
l = 4  e_0 = 1.42505668
l = 4  e_1 = 4.12349331
l = 4  e_2 = 10.8103714
l = 0  occ = 2 + 0
l = 1  occ = 0 + 1.333
l = 2  occ = 0 + 0
l = 3  occ = 0 + 0
E1 = -102.62873499230024  E_coul = 28.332361894614785
cycle= 17 E= -74.2963730976855  delta_E= 5.68e-14  |g|=    0  |ddm|= 2.24e-11
    CPU time for cycle= 17      0.17 sec, wall time      0.04 sec
l = 0  e_0 = -20.8157264
l = 0  e_1 = -1.31270611
l = 0  e_2 = 0.03725944
l = 0  e_3 = 0.22231119
l = 0  e_4 = 0.960860589
l = 0  e_5 = 3.71747631
l = 0  e_6 = 14.2830338
l = 0  e_7 = 49.9646985
l = 0  e_8 = 163.870935
l = 0  e_9 = 671.631
l = 1  e_0 = -0.426786552
l = 1  e_1 = 0.0385522082
l = 1  e_2 = 0.183959034
l = 1  e_3 = 0.742108549
l = 1  e_4 = 2.67721059
l = 1  e_5 = 8.92736989
l = 1  e_6 = 28.15696
l = 1  e_7 = 90.0762158
l = 1  e_8 = 294.464286
l = 2  e_0 = 0.171150419
l = 2  e_1 = 0.580475941
l = 2  e_2 = 1.58763081
l = 2  e_3 = 4.3041537
l = 2  e_4 = 12.4254303
l = 2  e_5 = 39.1648938
l = 2  e_6 = 140.066532
l = 3  e_0 = 0.509596201
l = 3  e_1 = 1.5691846
l = 3  e_2 = 4.15641897
l = 3  e_3 = 11.7892578
l = 3  e_4 = 49.1114773
l = 4  e_0 = 1.42505668
l = 4  e_1 = 4.12349331
l = 4  e_2 = 10.8103714
l = 0  occ = 2 + 0
l = 1  occ = 0 + 1.333
l = 2  occ = 0 + 0
l = 3  occ = 0 + 0
E1 = -102.62873499175431  E_coul = 28.332361894068704
Extra cycle  E= -74.2963730976856  delta_E= -1.42e-13  |g|=    0  |ddm|= 2.24e-11
    CPU time for scf_cycle      4.24 sec, wall time      1.08 sec
    CPU time for SCF      4.24 sec, wall time      1.08 sec
Atomic HF for atom  O  converged. SCF energy = -74.2963730976856

Atom O, E = -74.2963730977
Nelec from initial guess = (np.float64(4.000000000000002), np.float64(4.000000000000002))
E1 = -102.62873499175431  Ecoul = 28.33236189406871
init E= -74.2963730976856
    CPU time for initialize scf      5.63 sec, wall time      1.43 sec
alpha HOMO (B3u) = -0.426786552361032  LUMO (Ag) = 0.0372594399755451
alpha irrep_nelec = [2, 0, 0, 0, 0, 1, 1, 1]
beta  irrep_nelec = [2, 0, 0, 0, 0, 0, 0, 0]
alpha-Ag nocc = 2  HOMO = -1.31270611095186  LUMO = 0.0372594399755451
   mo_energy = [-2.08157264e+01 -1.31270611e+00  3.72594400e-02  1.71150419e-01
  1.71150419e-01  2.22311190e-01  5.80475941e-01  5.80475941e-01
  9.60860589e-01  1.42505668e+00  1.42505668e+00  1.42505668e+00
  1.58763081e+00  1.58763081e+00  3.71747631e+00  4.12349331e+00
  4.12349331e+00  4.12349331e+00  4.30415370e+00  4.30415370e+00
  1.08103714e+01  1.08103714e+01  1.08103714e+01  1.24254303e+01
  1.24254303e+01  1.42830338e+01  3.91648938e+01  3.91648938e+01
  4.99646985e+01  1.40066532e+02  1.40066532e+02  1.63870935e+02
  6.71631000e+02]
alpha-B1g nocc = 0
   mo_energy = [  0.17115042   0.58047594   1.42505668   1.42505668   1.58763081
   4.12349331   4.12349331   4.3041537   10.8103714   10.8103714
  12.42543025  39.16489376 140.06653172]
alpha-B2g nocc = 0
   mo_energy = [  0.17115042   0.58047594   1.42505668   1.42505668   1.58763081
   4.12349331   4.12349331   4.3041537   10.8103714   10.8103714
  12.42543025  39.16489376 140.06653172]
alpha-B3g nocc = 0
   mo_energy = [  0.17115042   0.58047594   1.42505668   1.42505668   1.58763081
   4.12349331   4.12349331   4.3041537   10.8103714   10.8103714
  12.42543025  39.16489376 140.06653172]
alpha-Au nocc = 0
   mo_energy = [ 0.5095962   1.5691846   4.15641897 11.78925783 49.11147733]
alpha-B1u nocc = 1  HOMO = -0.426786552361036  LUMO = 0.0385522081619925
   mo_energy = [-4.26786552e-01  3.85522082e-02  1.83959034e-01  5.09596201e-01
  5.09596201e-01  7.42108549e-01  1.56918460e+00  1.56918460e+00
  2.67721059e+00  4.15641897e+00  4.15641897e+00  8.92736989e+00
  1.17892578e+01  1.17892578e+01  2.81569600e+01  4.91114773e+01
  4.91114773e+01  9.00762158e+01  2.94464286e+02]
alpha-B2u nocc = 1  HOMO = -0.426786552361034  LUMO = 0.0385522081619984
   mo_energy = [-4.26786552e-01  3.85522082e-02  1.83959034e-01  5.09596201e-01
  5.09596201e-01  7.42108549e-01  1.56918460e+00  1.56918460e+00
  2.67721059e+00  4.15641897e+00  4.15641897e+00  8.92736989e+00
  1.17892578e+01  1.17892578e+01  2.81569600e+01  4.91114773e+01
  4.91114773e+01  9.00762158e+01  2.94464286e+02]
alpha-B3u nocc = 1  HOMO = -0.426786552361032  LUMO = 0.0385522081619947
   mo_energy = [-4.26786552e-01  3.85522082e-02  1.83959034e-01  5.09596201e-01
  5.09596201e-01  7.42108549e-01  1.56918460e+00  1.56918460e+00
  2.67721059e+00  4.15641897e+00  4.15641897e+00  8.92736989e+00
  1.17892578e+01  1.17892578e+01  2.81569600e+01  4.91114773e+01
  4.91114773e+01  9.00762158e+01  2.94464286e+02]
beta-Ag nocc = 2  HOMO = -1.31270611095186  LUMO = 0.0372594399755451
   mo_energy = [-2.08157264e+01 -1.31270611e+00  3.72594400e-02  1.71150419e-01
  1.71150419e-01  2.22311190e-01  5.80475941e-01  5.80475941e-01
  9.60860589e-01  1.42505668e+00  1.42505668e+00  1.42505668e+00
  1.58763081e+00  1.58763081e+00  3.71747631e+00  4.12349331e+00
  4.12349331e+00  4.12349331e+00  4.30415370e+00  4.30415370e+00
  1.08103714e+01  1.08103714e+01  1.08103714e+01  1.24254303e+01
  1.24254303e+01  1.42830338e+01  3.91648938e+01  3.91648938e+01
  4.99646985e+01  1.40066532e+02  1.40066532e+02  1.63870935e+02
  6.71631000e+02]
beta-B1g nocc = 0
   mo_energy = [  0.17115042   0.58047594   1.42505668   1.42505668   1.58763081
   4.12349331   4.12349331   4.3041537   10.8103714   10.8103714
  12.42543025  39.16489376 140.06653172]
beta-B2g nocc = 0
   mo_energy = [  0.17115042   0.58047594   1.42505668   1.42505668   1.58763081
   4.12349331   4.12349331   4.3041537   10.8103714   10.8103714
  12.42543025  39.16489376 140.06653172]
beta-B3g nocc = 0
   mo_energy = [  0.17115042   0.58047594   1.42505668   1.42505668   1.58763081
   4.12349331   4.12349331   4.3041537   10.8103714   10.8103714
  12.42543025  39.16489376 140.06653172]
beta-Au nocc = 0
   mo_energy = [ 0.5095962   1.5691846   4.15641897 11.78925783 49.11147733]
beta-B1u nocc = 0
   mo_energy = [-4.26786552e-01  3.85522082e-02  1.83959034e-01  5.09596201e-01
  5.09596201e-01  7.42108549e-01  1.56918460e+00  1.56918460e+00
  2.67721059e+00  4.15641897e+00  4.15641897e+00  8.92736989e+00
  1.17892578e+01  1.17892578e+01  2.81569600e+01  4.91114773e+01
  4.91114773e+01  9.00762158e+01  2.94464286e+02]
beta-B2u nocc = 0
   mo_energy = [-4.26786552e-01  3.85522082e-02  1.83959034e-01  5.09596201e-01
  5.09596201e-01  7.42108549e-01  1.56918460e+00  1.56918460e+00
  2.67721059e+00  4.15641897e+00  4.15641897e+00  8.92736989e+00
  1.17892578e+01  1.17892578e+01  2.81569600e+01  4.91114773e+01
  4.91114773e+01  9.00762158e+01  2.94464286e+02]
beta-B3u nocc = 0
   mo_energy = [-4.26786552e-01  3.85522082e-02  1.83959034e-01  5.09596201e-01
  5.09596201e-01  7.42108549e-01  1.56918460e+00  1.56918460e+00
  2.67721059e+00  4.15641897e+00  4.15641897e+00  8.92736989e+00
  1.17892578e+01  1.17892578e+01  2.81569600e+01  4.91114773e+01
  4.91114773e+01  9.00762158e+01  2.94464286e+02]
multiplicity <S^2> = 3.75  2S+1 = 4
E1 = -96.46405388899475  Ecoul = 22.25130555080709
cycle= 1 E= -74.2127483381877  delta_E= 0.0836  |g|= 0.546  |ddm|= 0.606
    CPU time for cycle= 1      0.35 sec, wall time      0.09 sec
diis-norm(errvec)=0.771896
diis-c [-0.59582331  1.        ]
alpha HOMO (B3u) = -1.46965819479821  LUMO (Ag) = -0.174217049692883
alpha irrep_nelec = [2, 0, 0, 0, 0, 1, 1, 1]
beta  irrep_nelec = [2, 0, 0, 0, 0, 0, 0, 0]
alpha-Ag nocc = 2  HOMO = -2.23502982777914  LUMO = -0.174217049692883
   mo_energy = [-2.19019363e+01 -2.23502983e+00 -1.74217050e-01 -2.51121041e-02
 -1.86547885e-02 -1.86547885e-02  2.49986052e-01  2.49986052e-01
  5.23123045e-01  1.05437482e+00  1.05437482e+00  1.10331007e+00
  1.10331007e+00  1.10331007e+00  3.02124416e+00  3.56107522e+00
  3.56107522e+00  3.61430361e+00  3.61430361e+00  3.61430361e+00
  1.00736564e+01  1.00736564e+01  1.00736564e+01  1.15149474e+01
  1.15149474e+01  1.33707462e+01  3.81535833e+01  3.81535833e+01
  4.89529239e+01  1.39013319e+02  1.39013319e+02  1.62821731e+02
  6.70570706e+02]
alpha-B1g nocc = 0
   mo_energy = [-1.86547885e-02  2.49986052e-01  1.05437482e+00  1.10331007e+00
  1.10331007e+00  3.56107522e+00  3.61430361e+00  3.61430361e+00
  1.00736564e+01  1.00736564e+01  1.15149474e+01  3.81535833e+01
  1.39013319e+02]
alpha-B2g nocc = 0
   mo_energy = [-1.86547885e-02  2.49986052e-01  1.05437482e+00  1.10331007e+00
  1.10331007e+00  3.56107522e+00  3.61430361e+00  3.61430361e+00
  1.00736564e+01  1.00736564e+01  1.15149474e+01  3.81535833e+01
  1.39013319e+02]
alpha-B3g nocc = 0
   mo_energy = [-1.86547885e-02  2.49986052e-01  1.05437482e+00  1.10331007e+00
  1.10331007e+00  3.56107522e+00  3.61430361e+00  3.61430361e+00
  1.00736564e+01  1.00736564e+01  1.15149474e+01  3.81535833e+01
  1.39013319e+02]
alpha-Au nocc = 0
   mo_energy = [ 0.27078062  1.17532798  3.54875945 10.94364398 48.08912569]
alpha-B1u nocc = 1  HOMO = -1.46965819479821  LUMO = -0.109238818972268
   mo_energy = [-1.46965819e+00 -1.09238819e-01 -2.64472953e-02  2.70780620e-01
  2.70780620e-01  3.26270267e-01  1.17532798e+00  1.17532798e+00
  1.99499790e+00  3.54875945e+00  3.54875945e+00  8.04773749e+00
  1.09436440e+01  1.09436440e+01  2.71682721e+01  4.80891257e+01
  4.80891257e+01  8.90352605e+01  2.93405383e+02]
alpha-B2u nocc = 1  HOMO = -1.46965819479821  LUMO = -0.109238818972248
   mo_energy = [-1.46965819e+00 -1.09238819e-01 -2.64472953e-02  2.70780620e-01
  2.70780620e-01  3.26270267e-01  1.17532798e+00  1.17532798e+00
  1.99499790e+00  3.54875945e+00  3.54875945e+00  8.04773749e+00
  1.09436440e+01  1.09436440e+01  2.71682721e+01  4.80891257e+01
  4.80891257e+01  8.90352605e+01  2.93405383e+02]
alpha-B3u nocc = 1  HOMO = -1.46965819479821  LUMO = -0.109238818972256
   mo_energy = [-1.46965819e+00 -1.09238819e-01 -2.64472953e-02  2.70780620e-01
  2.70780620e-01  3.26270267e-01  1.17532798e+00  1.17532798e+00
  1.99499790e+00  3.54875945e+00  3.54875945e+00  8.04773749e+00
  1.09436440e+01  1.09436440e+01  2.71682721e+01  4.80891257e+01
  4.80891257e+01  8.90352605e+01  2.93405383e+02]
beta-Ag nocc = 2  HOMO = -1.7699247301956  LUMO = -0.15440554349389
   mo_energy = [-2.18056174e+01 -1.76992473e+00 -1.54405543e-01 -1.30420614e-02
 -1.30420614e-02 -8.09937848e-03  2.88780046e-01  2.88780046e-01
  5.80858341e-01  1.11043478e+00  1.11043478e+00  1.11043478e+00
  1.16559998e+00  1.16559998e+00  3.12178331e+00  3.64647877e+00
  3.64647877e+00  3.64647877e+00  3.71566016e+00  3.71566016e+00
  1.01385565e+01  1.01385565e+01  1.01385565e+01  1.16401477e+01
  1.16401477e+01  1.34568870e+01  3.82177814e+01  3.82177814e+01
  4.89937622e+01  1.39033242e+02  1.39033242e+02  1.62835421e+02
  6.70574179e+02]
beta-B1g nocc = 0
   mo_energy = [-1.30420614e-02  2.88780046e-01  1.11043478e+00  1.11043478e+00
  1.16559998e+00  3.64647877e+00  3.64647877e+00  3.71566016e+00
  1.01385565e+01  1.01385565e+01  1.16401477e+01  3.82177814e+01
  1.39033242e+02]
beta-B2g nocc = 0
   mo_energy = [-1.30420614e-02  2.88780046e-01  1.11043478e+00  1.11043478e+00
  1.16559998e+00  3.64647877e+00  3.64647877e+00  3.71566016e+00
  1.01385565e+01  1.01385565e+01  1.16401477e+01  3.82177814e+01
  1.39033242e+02]
beta-B3g nocc = 0
   mo_energy = [-1.30420614e-02  2.88780046e-01  1.11043478e+00  1.11043478e+00
  1.16559998e+00  3.64647877e+00  3.64647877e+00  3.71566016e+00
  1.01385565e+01  1.01385565e+01  1.16401477e+01  3.82177814e+01
  1.39033242e+02]
beta-Au nocc = 0
   mo_energy = [ 0.27436516  1.2019318   3.62278475 11.04731447 48.1504175 ]
beta-B1u nocc = 0
   mo_energy = [-5.83159701e-01 -9.80164607e-02 -1.17294956e-02  2.74365156e-01
  2.74365156e-01  3.94751931e-01  1.20193180e+00  1.20193180e+00
  2.12326743e+00  3.62278475e+00  3.62278475e+00  8.16156979e+00
  1.10473145e+01  1.10473145e+01  2.72329148e+01  4.81504175e+01
  4.81504175e+01  8.90611551e+01  2.93412825e+02]
beta-B2u nocc = 0
   mo_energy = [-5.83159701e-01 -9.80164607e-02 -1.17294956e-02  2.74365156e-01
  2.74365156e-01  3.94751931e-01  1.20193180e+00  1.20193180e+00
  2.12326743e+00  3.62278475e+00  3.62278475e+00  8.16156979e+00
  1.10473145e+01  1.10473145e+01  2.72329148e+01  4.81504175e+01
  4.81504175e+01  8.90611551e+01  2.93412825e+02]
beta-B3u nocc = 0
   mo_energy = [-5.83159701e-01 -9.80164607e-02 -1.17294956e-02  2.74365156e-01
  2.74365156e-01  3.94751931e-01  1.20193180e+00  1.20193180e+00
  2.12326743e+00  3.62278475e+00  3.62278475e+00  8.16156979e+00
  1.10473145e+01  1.10473145e+01  2.72329148e+01  4.81504175e+01
  4.81504175e+01  8.90611551e+01  2.93412825e+02]
multiplicity <S^2> = 3.7504027  2S+1 = 4.0002013
E1 = -98.57593017506605  Ecoul = 24.207003645133916
cycle= 2 E= -74.3689265299321  delta_E= -0.156  |g|= 0.15  |ddm|= 0.394
    CPU time for cycle= 2      0.34 sec, wall time      0.09 sec
diis-norm(errvec)=0.212167
diis-c [-0.03600824  0.11256244  0.88743756]
alpha HOMO (B2u) = -1.33395385975864  LUMO (Ag) = -0.158917469902027
alpha irrep_nelec = [2, 0, 0, 0, 0, 1, 1, 1]
beta  irrep_nelec = [2, 0, 0, 0, 0, 0, 0, 0]
alpha-Ag nocc = 2  HOMO = -2.07941885259161  LUMO = -0.158917469902027
   mo_energy = [-2.14318748e+01 -2.07941885e+00 -1.58917470e-01 -1.45053284e-02
 -1.45053284e-02 -1.26084938e-02  2.75806391e-01  2.75806391e-01
  5.70894762e-01  1.11230677e+00  1.11230677e+00  1.11230677e+00
  1.12297619e+00  1.12297619e+00  3.16409867e+00  3.66723875e+00
  3.66723875e+00  3.66723875e+00  3.70351113e+00  3.70351113e+00
  1.02376202e+01  1.02376202e+01  1.02376202e+01  1.17904792e+01
  1.17904792e+01  1.36755916e+01  3.85618389e+01  3.85618389e+01
  4.93821300e+01  1.39503266e+02  1.39503266e+02  1.63317848e+02
  6.71101524e+02]
alpha-B1g nocc = 0
   mo_energy = [-1.45053284e-02  2.75806391e-01  1.11230677e+00  1.11230677e+00
  1.12297619e+00  3.66723875e+00  3.66723875e+00  3.70351113e+00
  1.02376202e+01  1.02376202e+01  1.17904792e+01  3.85618389e+01
  1.39503266e+02]
alpha-B2g nocc = 0
   mo_energy = [-1.45053284e-02  2.75806391e-01  1.11230677e+00  1.11230677e+00
  1.12297619e+00  3.66723875e+00  3.66723875e+00  3.70351113e+00
  1.02376202e+01  1.02376202e+01  1.17904792e+01  3.85618389e+01
  1.39503266e+02]
alpha-B3g nocc = 0
   mo_energy = [-1.45053284e-02  2.75806391e-01  1.11230677e+00  1.11230677e+00
  1.12297619e+00  3.66723875e+00  3.66723875e+00  3.70351113e+00
  1.02376202e+01  1.02376202e+01  1.17904792e+01  3.85618389e+01
  1.39503266e+02]
alpha-Au nocc = 0
   mo_energy = [ 0.27416529  1.20211992  3.64182224 11.1738169  48.50748404]
alpha-B1u nocc = 1  HOMO = -1.33395385975865  LUMO = -0.103119573870749
   mo_energy = [-1.33395386e+00 -1.03119574e-01 -1.92914230e-02  2.74165294e-01
  2.74165294e-01  3.63794256e-01  1.20211992e+00  1.20211992e+00
  2.12132955e+00  3.64182224e+00  3.64182224e+00  8.31217884e+00
  1.11738169e+01  1.11738169e+01  2.75566536e+01  4.85074840e+01
  4.85074840e+01  8.95070942e+01  2.93921512e+02]
alpha-B2u nocc = 1  HOMO = -1.33395385975864  LUMO = -0.103119573870743
   mo_energy = [-1.33395386e+00 -1.03119574e-01 -1.92914230e-02  2.74165294e-01
  2.74165294e-01  3.63794256e-01  1.20211992e+00  1.20211992e+00
  2.12132955e+00  3.64182224e+00  3.64182224e+00  8.31217884e+00
  1.11738169e+01  1.11738169e+01  2.75566536e+01  4.85074840e+01
  4.85074840e+01  8.95070942e+01  2.93921512e+02]
alpha-B3u nocc = 1  HOMO = -1.33395385975865  LUMO = -0.10311957387076
   mo_energy = [-1.33395386e+00 -1.03119574e-01 -1.92914230e-02  2.74165294e-01
  2.74165294e-01  3.63794256e-01  1.20211992e+00  1.20211992e+00
  2.12132955e+00  3.64182224e+00  3.64182224e+00  8.31217884e+00
  1.11738169e+01  1.11738169e+01  2.75566536e+01  4.85074840e+01
  4.85074840e+01  8.95070942e+01  2.93921512e+02]
beta-Ag nocc = 2  HOMO = -1.56672534435844  LUMO = -0.147956392021256
   mo_energy = [-2.13068531e+01 -1.56672534e+00 -1.47956392e-01 -1.20501681e-02
 -1.20501681e-02  1.02143862e-03  2.99856605e-01  2.99856605e-01
  6.29506502e-01  1.11571447e+00  1.11571447e+00  1.11571447e+00
  1.22746752e+00  1.22746752e+00  3.28550870e+00  3.69334906e+00
  3.69334906e+00  3.69334906e+00  3.88839730e+00  3.88839730e+00
  1.03096899e+01  1.03096899e+01  1.03096899e+01  1.19514316e+01
  1.19514316e+01  1.37851224e+01  3.86460948e+01  3.86460948e+01
  4.94346248e+01  1.39529443e+02  1.39529443e+02  1.63334996e+02
  6.71105370e+02]
beta-B1g nocc = 0
   mo_energy = [-1.20501681e-02  2.99856605e-01  1.11571447e+00  1.11571447e+00
  1.22746752e+00  3.69334906e+00  3.69334906e+00  3.88839730e+00
  1.03096899e+01  1.03096899e+01  1.19514316e+01  3.86460948e+01
  1.39529443e+02]
beta-B2g nocc = 0
   mo_energy = [-1.20501681e-02  2.99856605e-01  1.11571447e+00  1.11571447e+00
  1.22746752e+00  3.69334906e+00  3.69334906e+00  3.88839730e+00
  1.03096899e+01  1.03096899e+01  1.19514316e+01  3.86460948e+01
  1.39529443e+02]
beta-B3g nocc = 0
   mo_energy = [-1.20501681e-02  2.99856605e-01  1.11571447e+00  1.11571447e+00
  1.22746752e+00  3.69334906e+00  3.69334906e+00  3.88839730e+00
  1.03096899e+01  1.03096899e+01  1.19514316e+01  3.86460948e+01
  1.39529443e+02]
beta-Au nocc = 0
   mo_energy = [ 0.27560095  1.21964186  3.71459448 11.29989078 48.5879681 ]
beta-B1u nocc = 0
   mo_energy = [-3.99120363e-01 -9.15783529e-02  4.74738275e-04  2.75600950e-01
  2.75600950e-01  4.55749790e-01  1.21964186e+00  1.21964186e+00
  2.28817669e+00  3.71459448e+00  3.71459448e+00  8.45828957e+00
  1.12998908e+01  1.12998908e+01  2.76405857e+01  4.85879681e+01
  4.85879681e+01  8.95406549e+01  2.93930665e+02]
beta-B2u nocc = 0
   mo_energy = [-3.99120363e-01 -9.15783529e-02  4.74738275e-04  2.75600950e-01
  2.75600950e-01  4.55749790e-01  1.21964186e+00  1.21964186e+00
  2.28817669e+00  3.71459448e+00  3.71459448e+00  8.45828957e+00
  1.12998908e+01  1.12998908e+01  2.76405857e+01  4.85879681e+01
  4.85879681e+01  8.95406549e+01  2.93930665e+02]
beta-B3u nocc = 0
   mo_energy = [-3.99120363e-01 -9.15783529e-02  4.74738275e-04  2.75600950e-01
  2.75600950e-01  4.55749790e-01  1.21964186e+00  1.21964186e+00
  2.28817669e+00  3.71459448e+00  3.71459448e+00  8.45828957e+00
  1.12998908e+01  1.12998908e+01  2.76405857e+01  4.85879681e+01
  4.85879681e+01  8.95406549e+01  2.93930665e+02]
multiplicity <S^2> = 3.752656  2S+1 = 4.0013278
E1 = -98.44279249371996  Ecoul = 24.067851294104415
cycle= 3 E= -74.3749411996155  delta_E= -0.00601  |g|= 0.0346  |ddm|= 0.0914
    CPU time for cycle= 3      0.34 sec, wall time      0.09 sec
diis-norm(errvec)=0.0489164
diis-c [-9.61327689e-04 -3.45239635e-02 -2.16808452e-01  1.25133242e+00]
alpha HOMO (B2u) = -1.3284452856386  LUMO (Ag) = -0.156413856881431
alpha irrep_nelec = [2, 0, 0, 0, 0, 1, 1, 1]
beta  irrep_nelec = [2, 0, 0, 0, 0, 0, 0, 0]
alpha-Ag nocc = 2  HOMO = -2.06932972258922  LUMO = -0.156413856881431
   mo_energy = [-2.14085323e+01 -2.06932972e+00 -1.56413857e-01 -1.36622842e-02
 -1.36622842e-02 -1.03542183e-02  2.80811635e-01  2.80811635e-01
  5.77544658e-01  1.11438988e+00  1.11438988e+00  1.11438988e+00
  1.13202426e+00  1.13202426e+00  3.17845378e+00  3.67656593e+00
  3.67656593e+00  3.67656593e+00  3.71660015e+00  3.71660015e+00
  1.02565813e+01  1.02565813e+01  1.02565813e+01  1.18127737e+01
  1.18127737e+01  1.36988829e+01  3.85887876e+01  3.85887876e+01
  4.94072979e+01  1.39526913e+02  1.39526913e+02  1.63338141e+02
  6.71112680e+02]
alpha-B1g nocc = 0
   mo_energy = [-1.36622842e-02  2.80811635e-01  1.11438988e+00  1.11438988e+00
  1.13202426e+00  3.67656593e+00  3.67656593e+00  3.71660015e+00
  1.02565813e+01  1.02565813e+01  1.18127737e+01  3.85887876e+01
  1.39526913e+02]
alpha-B2g nocc = 0
   mo_energy = [-1.36622842e-02  2.80811635e-01  1.11438988e+00  1.11438988e+00
  1.13202426e+00  3.67656593e+00  3.67656593e+00  3.71660015e+00
  1.02565813e+01  1.02565813e+01  1.18127737e+01  3.85887876e+01
  1.39526913e+02]
alpha-B3g nocc = 0
   mo_energy = [-1.36622842e-02  2.80811635e-01  1.11438988e+00  1.11438988e+00
  1.13202426e+00  3.67656593e+00  3.67656593e+00  3.71660015e+00
  1.02565813e+01  1.02565813e+01  1.18127737e+01  3.85887876e+01
  1.39526913e+02]
alpha-Au nocc = 0
   mo_energy = [ 0.27495952  1.2075278   3.65450011 11.19502229 48.53551617]
alpha-B1u nocc = 1  HOMO = -1.32844528563861  LUMO = -0.102345442840769
   mo_energy = [-1.32844529e+00 -1.02345443e-01 -1.82957257e-02  2.74959516e-01
  2.74959516e-01  3.68376654e-01  1.20752780e+00  1.20752780e+00
  2.13343648e+00  3.65450011e+00  3.65450011e+00  8.33269208e+00
  1.11950223e+01  1.11950223e+01  2.75819557e+01  4.85355162e+01
  4.85355162e+01  8.95311468e+01  2.93938688e+02]
alpha-B2u nocc = 1  HOMO = -1.3284452856386  LUMO = -0.102345442840782
   mo_energy = [-1.32844529e+00 -1.02345443e-01 -1.82957257e-02  2.74959516e-01
  2.74959516e-01  3.68376654e-01  1.20752780e+00  1.20752780e+00
  2.13343648e+00  3.65450011e+00  3.65450011e+00  8.33269208e+00
  1.11950223e+01  1.11950223e+01  2.75819557e+01  4.85355162e+01
  4.85355162e+01  8.95311468e+01  2.93938688e+02]
alpha-B3u nocc = 1  HOMO = -1.3284452856386  LUMO = -0.102345442840747
   mo_energy = [-1.32844529e+00 -1.02345443e-01 -1.82957257e-02  2.74959516e-01
  2.74959516e-01  3.68376654e-01  1.20752780e+00  1.20752780e+00
  2.13343648e+00  3.65450011e+00  3.65450011e+00  8.33269208e+00
  1.11950223e+01  1.11950223e+01  2.75819557e+01  4.85355162e+01
  4.85355162e+01  8.95311468e+01  2.93938688e+02]
beta-Ag nocc = 2  HOMO = -1.53343108029336  LUMO = -0.146623094384599
   mo_energy = [-2.12791803e+01 -1.53343108e+00 -1.46623094e-01 -1.19221263e-02
 -1.19221263e-02  3.02865554e-03  3.01264262e-01  3.01264262e-01
  6.39178046e-01  1.11674065e+00  1.11674065e+00  1.11674065e+00
  1.23565792e+00  1.23565792e+00  3.30870620e+00  3.70119740e+00
  3.70119740e+00  3.70119740e+00  3.90996885e+00  3.90996885e+00
  1.03312838e+01  1.03312838e+01  1.03312838e+01  1.19805054e+01
  1.19805054e+01  1.38152351e+01  3.86755628e+01  3.86755628e+01
  4.94627928e+01  1.39553962e+02  1.39553962e+02  1.63356670e+02
  6.71117304e+02]
beta-B1g nocc = 0
   mo_energy = [-1.19221263e-02  3.01264262e-01  1.11674065e+00  1.11674065e+00
  1.23565792e+00  3.70119740e+00  3.70119740e+00  3.90996885e+00
  1.03312838e+01  1.03312838e+01  1.19805054e+01  3.86755628e+01
  1.39553962e+02]
beta-B2g nocc = 0
   mo_energy = [-1.19221263e-02  3.01264262e-01  1.11674065e+00  1.11674065e+00
  1.23565792e+00  3.70119740e+00  3.70119740e+00  3.90996885e+00
  1.03312838e+01  1.03312838e+01  1.19805054e+01  3.86755628e+01
  1.39553962e+02]
beta-B3g nocc = 0
   mo_energy = [-1.19221263e-02  3.01264262e-01  1.11674065e+00  1.11674065e+00
  1.23565792e+00  3.70119740e+00  3.70119740e+00  3.90996885e+00
  1.03312838e+01  1.03312838e+01  1.19805054e+01  3.86755628e+01
  1.39553962e+02]
beta-Au nocc = 0
   mo_energy = [ 0.27581987  1.22256064  3.72778002 11.32717612 48.61862783]
beta-B1u nocc = 0
   mo_energy = [-3.81223514e-01 -9.06495311e-02  2.42051455e-03  2.75819871e-01
  2.75819871e-01  4.64086652e-01  1.22256064e+00  1.22256064e+00
  2.30555160e+00  3.72778002e+00  3.72778002e+00  8.48389493e+00
  1.13271761e+01  1.13271761e+01  2.76693833e+01  4.86186278e+01
  4.86186278e+01  8.95663556e+01  2.93948743e+02]
beta-B2u nocc = 0
   mo_energy = [-3.81223514e-01 -9.06495311e-02  2.42051455e-03  2.75819871e-01
  2.75819871e-01  4.64086652e-01  1.22256064e+00  1.22256064e+00
  2.30555160e+00  3.72778002e+00  3.72778002e+00  8.48389493e+00
  1.13271761e+01  1.13271761e+01  2.76693833e+01  4.86186278e+01
  4.86186278e+01  8.95663556e+01  2.93948743e+02]
beta-B3u nocc = 0
   mo_energy = [-3.81223514e-01 -9.06495311e-02  2.42051455e-03  2.75819871e-01
  2.75819871e-01  4.64086652e-01  1.22256064e+00  1.22256064e+00
  2.30555160e+00  3.72778002e+00  3.72778002e+00  8.48389493e+00
  1.13271761e+01  1.13271761e+01  2.76693833e+01  4.86186278e+01
  4.86186278e+01  8.95663556e+01  2.93948743e+02]
multiplicity <S^2> = 3.7548501  2S+1 = 4.0024243
E1 = -98.46035034750653  Ecoul = 24.084593446369496
cycle= 4 E= -74.375756901137  delta_E= -0.000816  |g|= 0.0067  |ddm|= 0.0636
    CPU time for cycle= 4      0.35 sec, wall time      0.09 sec
diis-norm(errvec)=0.00947817
diis-c [-2.45832671e-05  2.09381241e-03  4.22751796e-02 -3.29888329e-01
  1.28551934e+00]
alpha HOMO (B2u) = -1.33046519682187  LUMO (Ag) = -0.156573856333118
alpha irrep_nelec = [2, 0, 0, 0, 0, 1, 1, 1]
beta  irrep_nelec = [2, 0, 0, 0, 0, 0, 0, 0]
alpha-Ag nocc = 2  HOMO = -2.07153086044908  LUMO = -0.156573856333118
   mo_energy = [-2.14112865e+01 -2.07153086e+00 -1.56573856e-01 -1.36808978e-02
 -1.36808978e-02 -1.04937696e-02  2.80806504e-01  2.80806504e-01
  5.77005793e-01  1.11430820e+00  1.11430820e+00  1.11430820e+00
  1.13163631e+00  1.13163631e+00  3.17677512e+00  3.67610838e+00
  3.67610838e+00  3.67610838e+00  3.71475250e+00  3.71475250e+00
  1.02548741e+01  1.02548741e+01  1.02548741e+01  1.18102658e+01
  1.18102658e+01  1.36964803e+01  3.85869100e+01  3.85869100e+01
  4.94052638e+01  1.39525588e+02  1.39525588e+02  1.63336513e+02
  6.71111226e+02]
alpha-B1g nocc = 0
   mo_energy = [-1.36808978e-02  2.80806504e-01  1.11430820e+00  1.11430820e+00
  1.13163631e+00  3.67610838e+00  3.67610838e+00  3.71475250e+00
  1.02548741e+01  1.02548741e+01  1.18102658e+01  3.85869100e+01
  1.39525588e+02]
alpha-B2g nocc = 0
   mo_energy = [-1.36808978e-02  2.80806504e-01  1.11430820e+00  1.11430820e+00
  1.13163631e+00  3.67610838e+00  3.67610838e+00  3.71475250e+00
  1.02548741e+01  1.02548741e+01  1.18102658e+01  3.85869100e+01
  1.39525588e+02]
alpha-B3g nocc = 0
   mo_energy = [-1.36808978e-02  2.80806504e-01  1.11430820e+00  1.11430820e+00
  1.13163631e+00  3.67610838e+00  3.67610838e+00  3.71475250e+00
  1.02548741e+01  1.02548741e+01  1.18102658e+01  3.85869100e+01
  1.39525588e+02]
alpha-Au nocc = 0
   mo_energy = [ 0.2749253   1.20740636  3.65363002 11.19270312 48.53357981]
alpha-B1u nocc = 1  HOMO = -1.33046519682189  LUMO = -0.10249249025937
   mo_energy = [-1.33046520e+00 -1.02492490e-01 -1.84767148e-02  2.74925298e-01
  2.74925298e-01  3.67683477e-01  1.20740636e+00  1.20740636e+00
  2.13186547e+00  3.65363002e+00  3.65363002e+00  8.33055202e+00
  1.11927031e+01  1.11927031e+01  2.75799696e+01  4.85335798e+01
  4.85335798e+01  8.95295318e+01  2.93937255e+02]
alpha-B2u nocc = 1  HOMO = -1.33046519682187  LUMO = -0.102492490259372
   mo_energy = [-1.33046520e+00 -1.02492490e-01 -1.84767148e-02  2.74925298e-01
  2.74925298e-01  3.67683477e-01  1.20740636e+00  1.20740636e+00
  2.13186547e+00  3.65363002e+00  3.65363002e+00  8.33055202e+00
  1.11927031e+01  1.11927031e+01  2.75799696e+01  4.85335798e+01
  4.85335798e+01  8.95295318e+01  2.93937255e+02]
alpha-B3u nocc = 1  HOMO = -1.33046519682187  LUMO = -0.102492490259366
   mo_energy = [-1.33046520e+00 -1.02492490e-01 -1.84767148e-02  2.74925298e-01
  2.74925298e-01  3.67683477e-01  1.20740636e+00  1.20740636e+00
  2.13186547e+00  3.65363002e+00  3.65363002e+00  8.33055202e+00
  1.11927031e+01  1.11927031e+01  2.75799696e+01  4.85335798e+01
  4.85335798e+01  8.95295318e+01  2.93937255e+02]
beta-Ag nocc = 2  HOMO = -1.53114129079847  LUMO = -0.146540260139404
   mo_energy = [-2.12789827e+01 -1.53114129e+00 -1.46540260e-01 -1.19593386e-02
 -1.19593386e-02  3.14368503e-03  3.00918918e-01  3.00918918e-01
  6.39519476e-01  1.11658827e+00  1.11658827e+00  1.11658827e+00
  1.23466521e+00  1.23466521e+00  3.30881876e+00  3.70038721e+00
  3.70038721e+00  3.70038721e+00  3.90902265e+00  3.90902265e+00
  1.03297668e+01  1.03297668e+01  1.03297668e+01  1.19792363e+01
  1.19792363e+01  1.38146643e+01  3.86742569e+01  3.86742569e+01
  4.94620666e+01  1.39553076e+02  1.39553076e+02  1.63356049e+02
  6.71116570e+02]
beta-B1g nocc = 0
   mo_energy = [-1.19593386e-02  3.00918918e-01  1.11658827e+00  1.11658827e+00
  1.23466521e+00  3.70038721e+00  3.70038721e+00  3.90902265e+00
  1.03297668e+01  1.03297668e+01  1.19792363e+01  3.86742569e+01
  1.39553076e+02]
beta-B2g nocc = 0
   mo_energy = [-1.19593386e-02  3.00918918e-01  1.11658827e+00  1.11658827e+00
  1.23466521e+00  3.70038721e+00  3.70038721e+00  3.90902265e+00
  1.03297668e+01  1.03297668e+01  1.19792363e+01  3.86742569e+01
  1.39553076e+02]
beta-B3g nocc = 0
   mo_energy = [-1.19593386e-02  3.00918918e-01  1.11658827e+00  1.11658827e+00
  1.23466521e+00  3.70038721e+00  3.70038721e+00  3.90902265e+00
  1.03297668e+01  1.03297668e+01  1.19792363e+01  3.86742569e+01
  1.39553076e+02]
beta-Au nocc = 0
   mo_energy = [ 0.27577521  1.22210344  3.72662881 11.32571381 48.61726846]
beta-B1u nocc = 0
   mo_energy = [-3.82309860e-01 -9.06518341e-02  2.41996796e-03  2.75775209e-01
  2.75775209e-01  4.63952987e-01  1.22210344e+00  1.22210344e+00
  2.30467603e+00  3.72662881e+00  3.72662881e+00  8.48272980e+00
  1.13257138e+01  1.13257138e+01  2.76683244e+01  4.86172685e+01
  4.86172685e+01  8.95655828e+01  2.93948064e+02]
beta-B2u nocc = 0
   mo_energy = [-3.82309860e-01 -9.06518341e-02  2.41996796e-03  2.75775209e-01
  2.75775209e-01  4.63952987e-01  1.22210344e+00  1.22210344e+00
  2.30467603e+00  3.72662881e+00  3.72662881e+00  8.48272980e+00
  1.13257138e+01  1.13257138e+01  2.76683244e+01  4.86172685e+01
  4.86172685e+01  8.95655828e+01  2.93948064e+02]
beta-B3u nocc = 0
   mo_energy = [-3.82309860e-01 -9.06518341e-02  2.41996796e-03  2.75775209e-01
  2.75775209e-01  4.63952987e-01  1.22210344e+00  1.22210344e+00
  2.30467603e+00  3.72662881e+00  3.72662881e+00  8.48272980e+00
  1.13257138e+01  1.13257138e+01  2.76683244e+01  4.86172685e+01
  4.86172685e+01  8.95655828e+01  2.93948064e+02]
multiplicity <S^2> = 3.7554992  2S+1 = 4.0027486
E1 = -98.46723980569737  Ecoul = 24.091453863573193
cycle= 5 E= -74.3757859421242  delta_E= -2.9e-05  |g|= 0.000705  |ddm|= 0.00934
    CPU time for cycle= 5      0.35 sec, wall time      0.09 sec
diis-norm(errvec)=0.000997426
diis-c [-1.13948029e-07  2.05996301e-04 -4.37000245e-03  4.01041754e-02
 -2.38264732e-01  1.20232456e+00]
alpha HOMO (B2u) = -1.33060783337215  LUMO (Ag) = -0.156599326714862
alpha irrep_nelec = [2, 0, 0, 0, 0, 1, 1, 1]
beta  irrep_nelec = [2, 0, 0, 0, 0, 0, 0, 0]
alpha-Ag nocc = 2  HOMO = -2.07174047463022  LUMO = -0.156599326714862
   mo_energy = [-2.14113372e+01 -2.07174047e+00 -1.56599327e-01 -1.36880557e-02
 -1.36880557e-02 -1.05177905e-02  2.80772386e-01  2.80772386e-01
  5.76934049e-01  1.11428976e+00  1.11428976e+00  1.11428976e+00
  1.13162024e+00  1.13162024e+00  3.17663849e+00  3.67603513e+00
  3.67603513e+00  3.67603513e+00  3.71465117e+00  3.71465117e+00
  1.02547588e+01  1.02547588e+01  1.02547588e+01  1.18101890e+01
  1.18101890e+01  1.36963970e+01  3.85869995e+01  3.85869995e+01
  4.94052811e+01  1.39525672e+02  1.39525672e+02  1.63336494e+02
  6.71111062e+02]
alpha-B1g nocc = 0
   mo_energy = [-1.36880557e-02  2.80772386e-01  1.11428976e+00  1.11428976e+00
  1.13162024e+00  3.67603513e+00  3.67603513e+00  3.71465117e+00
  1.02547588e+01  1.02547588e+01  1.18101890e+01  3.85869995e+01
  1.39525672e+02]
alpha-B2g nocc = 0
   mo_energy = [-1.36880557e-02  2.80772386e-01  1.11428976e+00  1.11428976e+00
  1.13162024e+00  3.67603513e+00  3.67603513e+00  3.71465117e+00
  1.02547588e+01  1.02547588e+01  1.18101890e+01  3.85869995e+01
  1.39525672e+02]
alpha-B3g nocc = 0
   mo_energy = [-1.36880557e-02  2.80772386e-01  1.11428976e+00  1.11428976e+00
  1.13162024e+00  3.67603513e+00  3.67603513e+00  3.71465117e+00
  1.02547588e+01  1.02547588e+01  1.18101890e+01  3.85869995e+01
  1.39525672e+02]
alpha-Au nocc = 0
   mo_energy = [ 0.27491879  1.20736628  3.65355781 11.19260213 48.5336872 ]
alpha-B1u nocc = 1  HOMO = -1.33060783337216  LUMO = -0.102493902783588
   mo_energy = [-1.33060783e+00 -1.02493903e-01 -1.84807447e-02  2.74918792e-01
  2.74918792e-01  3.67643778e-01  1.20736628e+00  1.20736628e+00
  2.13177619e+00  3.65355781e+00  3.65355781e+00  8.33050027e+00
  1.11926021e+01  1.11926021e+01  2.75800000e+01  4.85336872e+01
  4.85336872e+01  8.95295840e+01  2.93937203e+02]
alpha-B2u nocc = 1  HOMO = -1.33060783337215  LUMO = -0.10249390278361
   mo_energy = [-1.33060783e+00 -1.02493903e-01 -1.84807447e-02  2.74918792e-01
  2.74918792e-01  3.67643778e-01  1.20736628e+00  1.20736628e+00
  2.13177619e+00  3.65355781e+00  3.65355781e+00  8.33050027e+00
  1.11926021e+01  1.11926021e+01  2.75800000e+01  4.85336872e+01
  4.85336872e+01  8.95295840e+01  2.93937203e+02]
alpha-B3u nocc = 1  HOMO = -1.33060783337216  LUMO = -0.102493902783585
   mo_energy = [-1.33060783e+00 -1.02493903e-01 -1.84807447e-02  2.74918792e-01
  2.74918792e-01  3.67643778e-01  1.20736628e+00  1.20736628e+00
  2.13177619e+00  3.65355781e+00  3.65355781e+00  8.33050027e+00
  1.11926021e+01  1.11926021e+01  2.75800000e+01  4.85336872e+01
  4.85336872e+01  8.95295840e+01  2.93937203e+02]
beta-Ag nocc = 2  HOMO = -1.53094866958608  LUMO = -0.146533030068091
   mo_energy = [-2.12786717e+01 -1.53094867e+00 -1.46533030e-01 -1.19630260e-02
 -1.19630260e-02  3.15375213e-03  3.00883119e-01  3.00883119e-01
  6.39550378e-01  1.11657144e+00  1.11657144e+00  1.11657144e+00
  1.23455856e+00  1.23455856e+00  3.30888048e+00  3.70027831e+00
  3.70027831e+00  3.70027831e+00  3.90897237e+00  3.90897237e+00
  1.03296487e+01  1.03296487e+01  1.03296487e+01  1.19793035e+01
  1.19793035e+01  1.38148064e+01  3.86743988e+01  3.86743988e+01
  4.94622528e+01  1.39553206e+02  1.39553206e+02  1.63356168e+02
  6.71116510e+02]
beta-B1g nocc = 0
   mo_energy = [-1.19630260e-02  3.00883119e-01  1.11657144e+00  1.11657144e+00
  1.23455856e+00  3.70027831e+00  3.70027831e+00  3.90897237e+00
  1.03296487e+01  1.03296487e+01  1.19793035e+01  3.86743988e+01
  1.39553206e+02]
beta-B2g nocc = 0
   mo_energy = [-1.19630260e-02  3.00883119e-01  1.11657144e+00  1.11657144e+00
  1.23455856e+00  3.70027831e+00  3.70027831e+00  3.90897237e+00
  1.03296487e+01  1.03296487e+01  1.19793035e+01  3.86743988e+01
  1.39553206e+02]
beta-B3g nocc = 0
   mo_energy = [-1.19630260e-02  3.00883119e-01  1.11657144e+00  1.11657144e+00
  1.23455856e+00  3.70027831e+00  3.70027831e+00  3.90897237e+00
  1.03296487e+01  1.03296487e+01  1.19793035e+01  3.86743988e+01
  1.39553206e+02]
beta-Au nocc = 0
   mo_energy = [ 0.27577109  1.22204934  3.72649617 11.32569486 48.61743792]
beta-B1u nocc = 0
   mo_energy = [-3.82368519e-01 -9.06493275e-02  2.42556300e-03  2.75771091e-01
  2.75771091e-01  4.63962344e-01  1.22204934e+00  1.22204934e+00
  2.30465941e+00  3.72649617e+00  3.72649617e+00  8.48275648e+00
  1.13256949e+01  1.13256949e+01  2.76684472e+01  4.86174379e+01
  4.86174379e+01  8.95657362e+01  2.93948116e+02]
beta-B2u nocc = 0
   mo_energy = [-3.82368519e-01 -9.06493275e-02  2.42556300e-03  2.75771091e-01
  2.75771091e-01  4.63962344e-01  1.22204934e+00  1.22204934e+00
  2.30465941e+00  3.72649617e+00  3.72649617e+00  8.48275648e+00
  1.13256949e+01  1.13256949e+01  2.76684472e+01  4.86174379e+01
  4.86174379e+01  8.95657362e+01  2.93948116e+02]
beta-B3u nocc = 0
   mo_energy = [-3.82368519e-01 -9.06493275e-02  2.42556300e-03  2.75771091e-01
  2.75771091e-01  4.63962344e-01  1.22204934e+00  1.22204934e+00
  2.30465941e+00  3.72649617e+00  3.72649617e+00  8.48275648e+00
  1.13256949e+01  1.13256949e+01  2.76684472e+01  4.86174379e+01
  4.86174379e+01  8.95657362e+01  2.93948116e+02]
multiplicity <S^2> = 3.7555566  2S+1 = 4.0027773
E1 = -98.46710865914724  Ecoul = 24.091322487353132
cycle= 6 E= -74.3757861717941  delta_E= -2.3e-07  |g|= 3.34e-05  |ddm|= 0.00146
    CPU time for cycle= 6      0.35 sec, wall time      0.09 sec
diis-norm(errvec)=4.71647e-05
diis-c [-4.91089102e-10 -1.77290864e-05  2.80231835e-04 -2.70871096e-03
  2.08143398e-02 -1.30566873e-01  1.11219874e+00]
alpha HOMO (B2u) = -1.33060361648348  LUMO (Ag) = -0.156599767611497
alpha irrep_nelec = [2, 0, 0, 0, 0, 1, 1, 1]
beta  irrep_nelec = [2, 0, 0, 0, 0, 0, 0, 0]
alpha-Ag nocc = 2  HOMO = -2.07174516973306  LUMO = -0.156599767611497
   mo_energy = [-2.14113255e+01 -2.07174517e+00 -1.56599768e-01 -1.36882641e-02
 -1.36882641e-02 -1.05183570e-02  2.80771209e-01  2.80771209e-01
  5.76932636e-01  1.11428945e+00  1.11428945e+00  1.11428945e+00
  1.13162308e+00  1.13162308e+00  3.17663889e+00  3.67603598e+00
  3.67603598e+00  3.67603598e+00  3.71465606e+00  3.71465606e+00
  1.02547642e+01  1.02547642e+01  1.02547642e+01  1.18101963e+01
  1.18101963e+01  1.36964020e+01  3.85870078e+01  3.85870078e+01
  4.94052894e+01  1.39525683e+02  1.39525683e+02  1.63336508e+02
  6.71111088e+02]
alpha-B1g nocc = 0
   mo_energy = [-1.36882641e-02  2.80771209e-01  1.11428945e+00  1.11428945e+00
  1.13162308e+00  3.67603598e+00  3.67603598e+00  3.71465606e+00
  1.02547642e+01  1.02547642e+01  1.18101963e+01  3.85870078e+01
  1.39525683e+02]
alpha-B2g nocc = 0
   mo_energy = [-1.36882641e-02  2.80771209e-01  1.11428945e+00  1.11428945e+00
  1.13162308e+00  3.67603598e+00  3.67603598e+00  3.71465606e+00
  1.02547642e+01  1.02547642e+01  1.18101963e+01  3.85870078e+01
  1.39525683e+02]
alpha-B3g nocc = 0
   mo_energy = [-1.36882641e-02  2.80771209e-01  1.11428945e+00  1.11428945e+00
  1.13162308e+00  3.67603598e+00  3.67603598e+00  3.71465606e+00
  1.02547642e+01  1.02547642e+01  1.18101963e+01  3.85870078e+01
  1.39525683e+02]
alpha-Au nocc = 0
   mo_energy = [ 0.27491867  1.20736576  3.6535613  11.19260854 48.53369502]
alpha-B1u nocc = 1  HOMO = -1.33060361648348  LUMO = -0.102493155240809
   mo_energy = [-1.33060362e+00 -1.02493155e-01 -1.84798874e-02  2.74918673e-01
  2.74918673e-01  3.67646380e-01  1.20736576e+00  1.20736576e+00
  2.13178207e+00  3.65356130e+00  3.65356130e+00  8.33050830e+00
  1.11926085e+01  1.11926085e+01  2.75800085e+01  4.85336950e+01
  4.85336950e+01  8.95295946e+01  2.93937222e+02]
alpha-B2u nocc = 1  HOMO = -1.33060361648348  LUMO = -0.102493155240806
   mo_energy = [-1.33060362e+00 -1.02493155e-01 -1.84798874e-02  2.74918673e-01
  2.74918673e-01  3.67646380e-01  1.20736576e+00  1.20736576e+00
  2.13178207e+00  3.65356130e+00  3.65356130e+00  8.33050830e+00
  1.11926085e+01  1.11926085e+01  2.75800085e+01  4.85336950e+01
  4.85336950e+01  8.95295946e+01  2.93937222e+02]
alpha-B3u nocc = 1  HOMO = -1.33060361648348  LUMO = -0.102493155240812
   mo_energy = [-1.33060362e+00 -1.02493155e-01 -1.84798874e-02  2.74918673e-01
  2.74918673e-01  3.67646380e-01  1.20736576e+00  1.20736576e+00
  2.13178207e+00  3.65356130e+00  3.65356130e+00  8.33050830e+00
  1.11926085e+01  1.11926085e+01  2.75800085e+01  4.85336950e+01
  4.85336950e+01  8.95295946e+01  2.93937222e+02]
beta-Ag nocc = 2  HOMO = -1.53094858294849  LUMO = -0.146533029389842
   mo_energy = [-2.12786626e+01 -1.53094858e+00 -1.46533029e-01 -1.19629453e-02
 -1.19629453e-02  3.15378039e-03  3.00883806e-01  3.00883806e-01
  6.39550784e-01  1.11657168e+00  1.11657168e+00  1.11657168e+00
  1.23455956e+00  1.23455956e+00  3.30888396e+00  3.70027888e+00
  3.70027888e+00  3.70027888e+00  3.90897623e+00  3.90897623e+00
  1.03296533e+01  1.03296533e+01  1.03296533e+01  1.19793107e+01
  1.19793107e+01  1.38148136e+01  3.86744058e+01  3.86744058e+01
  4.94622619e+01  1.39553217e+02  1.39553217e+02  1.63356183e+02
  6.71116536e+02]
beta-B1g nocc = 0
   mo_energy = [-1.19629453e-02  3.00883806e-01  1.11657168e+00  1.11657168e+00
  1.23455956e+00  3.70027888e+00  3.70027888e+00  3.90897623e+00
  1.03296533e+01  1.03296533e+01  1.19793107e+01  3.86744058e+01
  1.39553217e+02]
beta-B2g nocc = 0
   mo_energy = [-1.19629453e-02  3.00883806e-01  1.11657168e+00  1.11657168e+00
  1.23455956e+00  3.70027888e+00  3.70027888e+00  3.90897623e+00
  1.03296533e+01  1.03296533e+01  1.19793107e+01  3.86744058e+01
  1.39553217e+02]
beta-B3g nocc = 0
   mo_energy = [-1.19629453e-02  3.00883806e-01  1.11657168e+00  1.11657168e+00
  1.23455956e+00  3.70027888e+00  3.70027888e+00  3.90897623e+00
  1.03296533e+01  1.03296533e+01  1.19793107e+01  3.86744058e+01
  1.39553217e+02]
beta-Au nocc = 0
   mo_energy = [ 0.27577119  1.22204995  3.72649757 11.32570203 48.61744481]
beta-B1u nocc = 0
   mo_energy = [-3.82364774e-01 -9.06492252e-02  2.42578811e-03  2.75771193e-01
  2.75771193e-01  4.63963823e-01  1.22204995e+00  1.22204995e+00
  2.30466283e+00  3.72649757e+00  3.72649757e+00  8.48276215e+00
  1.13257020e+01  1.13257020e+01  2.76684555e+01  4.86174448e+01
  4.86174448e+01  8.95657469e+01  2.93948134e+02]
beta-B2u nocc = 0
   mo_energy = [-3.82364774e-01 -9.06492252e-02  2.42578811e-03  2.75771193e-01
  2.75771193e-01  4.63963823e-01  1.22204995e+00  1.22204995e+00
  2.30466283e+00  3.72649757e+00  3.72649757e+00  8.48276215e+00
  1.13257020e+01  1.13257020e+01  2.76684555e+01  4.86174448e+01
  4.86174448e+01  8.95657469e+01  2.93948134e+02]
beta-B3u nocc = 0
   mo_energy = [-3.82364774e-01 -9.06492252e-02  2.42578811e-03  2.75771193e-01
  2.75771193e-01  4.63963823e-01  1.22204995e+00  1.22204995e+00
  2.30466283e+00  3.72649757e+00  3.72649757e+00  8.48276215e+00
  1.13257020e+01  1.13257020e+01  2.76684555e+01  4.86174448e+01
  4.86174448e+01  8.95657469e+01  2.93948134e+02]
multiplicity <S^2> = 3.7555562  2S+1 = 4.0027771
E1 = -98.46707633206628  Ecoul = 24.091290159695966
cycle= 7 E= -74.3757861723703  delta_E= -5.76e-10  |g|= 2.4e-06  |ddm|= 9.62e-05
    CPU time for cycle= 7      0.36 sec, wall time      0.09 sec
diis-norm(errvec)=3.38785e-06
diis-c [-3.07361889e-12  3.56261531e-08 -2.11963801e-05  2.28100687e-04
 -1.81921431e-03  1.19247009e-02 -1.37456361e-01  1.12714393e+00]
alpha HOMO (B2u) = -1.33060307567313  LUMO (Ag) = -0.156599892285004
alpha irrep_nelec = [2, 0, 0, 0, 0, 1, 1, 1]
beta  irrep_nelec = [2, 0, 0, 0, 0, 0, 0, 0]
alpha-Ag nocc = 2  HOMO = -2.07174596467094  LUMO = -0.156599892285004
   mo_energy = [-2.14113264e+01 -2.07174596e+00 -1.56599892e-01 -1.36882819e-02
 -1.36882819e-02 -1.05184786e-02  2.80771143e-01  2.80771143e-01
  5.76932286e-01  1.11428940e+00  1.11428940e+00  1.11428940e+00
  1.13162305e+00  1.13162305e+00  3.17663834e+00  3.67603592e+00
  3.67603592e+00  3.67603592e+00  3.71465592e+00  3.71465592e+00
  1.02547640e+01  1.02547640e+01  1.02547640e+01  1.18101960e+01
  1.18101960e+01  1.36964013e+01  3.85870071e+01  3.85870071e+01
  4.94052887e+01  1.39525683e+02  1.39525683e+02  1.63336508e+02
  6.71111088e+02]
alpha-B1g nocc = 0
   mo_energy = [-1.36882819e-02  2.80771143e-01  1.11428940e+00  1.11428940e+00
  1.13162305e+00  3.67603592e+00  3.67603592e+00  3.71465592e+00
  1.02547640e+01  1.02547640e+01  1.18101960e+01  3.85870071e+01
  1.39525683e+02]
alpha-B2g nocc = 0
   mo_energy = [-1.36882819e-02  2.80771143e-01  1.11428940e+00  1.11428940e+00
  1.13162305e+00  3.67603592e+00  3.67603592e+00  3.71465592e+00
  1.02547640e+01  1.02547640e+01  1.18101960e+01  3.85870071e+01
  1.39525683e+02]
alpha-B3g nocc = 0
   mo_energy = [-1.36882819e-02  2.80771143e-01  1.11428940e+00  1.11428940e+00
  1.13162305e+00  3.67603592e+00  3.67603592e+00  3.71465592e+00
  1.02547640e+01  1.02547640e+01  1.18101960e+01  3.85870071e+01
  1.39525683e+02]
alpha-Au nocc = 0
   mo_energy = [ 0.27491865  1.20736569  3.65356124 11.19260824 48.53369431]
alpha-B1u nocc = 1  HOMO = -1.33060307567313  LUMO = -0.102493217450113
   mo_energy = [-1.33060308e+00 -1.02493217e-01 -1.84799586e-02  2.74918648e-01
  2.74918648e-01  3.67646222e-01  1.20736569e+00  1.20736569e+00
  2.13178205e+00  3.65356124e+00  3.65356124e+00  8.33050806e+00
  1.11926082e+01  1.11926082e+01  2.75800079e+01  4.85336943e+01
  4.85336943e+01  8.95295940e+01  2.93937221e+02]
alpha-B2u nocc = 1  HOMO = -1.33060307567313  LUMO = -0.102493217450118
   mo_energy = [-1.33060308e+00 -1.02493217e-01 -1.84799586e-02  2.74918648e-01
  2.74918648e-01  3.67646222e-01  1.20736569e+00  1.20736569e+00
  2.13178205e+00  3.65356124e+00  3.65356124e+00  8.33050806e+00
  1.11926082e+01  1.11926082e+01  2.75800079e+01  4.85336943e+01
  4.85336943e+01  8.95295940e+01  2.93937221e+02]
alpha-B3u nocc = 1  HOMO = -1.33060307567314  LUMO = -0.102493217450123
   mo_energy = [-1.33060308e+00 -1.02493217e-01 -1.84799586e-02  2.74918648e-01
  2.74918648e-01  3.67646222e-01  1.20736569e+00  1.20736569e+00
  2.13178205e+00  3.65356124e+00  3.65356124e+00  8.33050806e+00
  1.11926082e+01  1.11926082e+01  2.75800079e+01  4.85336943e+01
  4.85336943e+01  8.95295940e+01  2.93937221e+02]
beta-Ag nocc = 2  HOMO = -1.53094934860854  LUMO = -0.146533056721375
   mo_energy = [-2.12786632e+01 -1.53094935e+00 -1.46533057e-01 -1.19629402e-02
 -1.19629402e-02  3.15374636e-03  3.00883829e-01  3.00883829e-01
  6.39550694e-01  1.11657168e+00  1.11657168e+00  1.11657168e+00
  1.23455944e+00  1.23455944e+00  3.30888377e+00  3.70027881e+00
  3.70027881e+00  3.70027881e+00  3.90897593e+00  3.90897593e+00
  1.03296531e+01  1.03296531e+01  1.03296531e+01  1.19793102e+01
  1.19793102e+01  1.38148131e+01  3.86744050e+01  3.86744050e+01
  4.94622613e+01  1.39553216e+02  1.39553216e+02  1.63356183e+02
  6.71116537e+02]
[...]
  1.13257018e+01  1.13257018e+01  2.76684549e+01  4.86174440e+01
  4.86174440e+01  8.95657464e+01  2.93948134e+02]
multiplicity <S^2> = 3.7555562  2S+1 = 4.0027771
E1 = -98.46707861658744  Ecoul = 24.091292444214737
cycle= 46 E= -74.3757861723727  delta_E= 1.42e-14  |g|= 1.4e-12  |ddm|= 1.05e-12
    CPU time for cycle= 46      0.36 sec, wall time      0.09 sec
diis-norm(errvec)=1.97419e-12
Linear dependence found in DIIS error vectors.
diis-c [-2.89052492e-16  1.25000000e-01  1.25000000e-01  1.25000000e-01
  1.25000000e-01  1.25000000e-01  1.25000000e-01  1.25000000e-01
  1.25000000e-01]
alpha HOMO (B3u) = -1.330602993157  LUMO (Ag) = -0.156599886601507
alpha irrep_nelec = [2, 0, 0, 0, 0, 1, 1, 1]
beta  irrep_nelec = [2, 0, 0, 0, 0, 0, 0, 0]
alpha-Ag nocc = 2  HOMO = -2.07174596881885  LUMO = -0.156599886601507
   mo_energy = [-2.14113264e+01 -2.07174597e+00 -1.56599887e-01 -1.36882789e-02
 -1.36882789e-02 -1.05184742e-02  2.80771160e-01  2.80771160e-01
  5.76932295e-01  1.11428941e+00  1.11428941e+00  1.11428941e+00
  1.13162307e+00  1.13162307e+00  3.17663837e+00  3.67603596e+00
  3.67603596e+00  3.67603596e+00  3.71465599e+00  3.71465599e+00
  1.02547641e+01  1.02547641e+01  1.02547641e+01  1.18101961e+01
  1.18101961e+01  1.36964013e+01  3.85870072e+01  3.85870072e+01
  4.94052888e+01  1.39525683e+02  1.39525683e+02  1.63336508e+02
  6.71111088e+02]
alpha-B1g nocc = 0
   mo_energy = [-1.36882789e-02  2.80771160e-01  1.11428941e+00  1.11428941e+00
  1.13162307e+00  3.67603596e+00  3.67603596e+00  3.71465599e+00
  1.02547641e+01  1.02547641e+01  1.18101961e+01  3.85870072e+01
  1.39525683e+02]
alpha-B2g nocc = 0
   mo_energy = [-1.36882789e-02  2.80771160e-01  1.11428941e+00  1.11428941e+00
  1.13162307e+00  3.67603596e+00  3.67603596e+00  3.71465599e+00
  1.02547641e+01  1.02547641e+01  1.18101961e+01  3.85870072e+01
  1.39525683e+02]
alpha-B3g nocc = 0
   mo_energy = [-1.36882789e-02  2.80771160e-01  1.11428941e+00  1.11428941e+00
  1.13162307e+00  3.67603596e+00  3.67603596e+00  3.71465599e+00
  1.02547641e+01  1.02547641e+01  1.18101961e+01  3.85870072e+01
  1.39525683e+02]
alpha-Au nocc = 0
   mo_energy = [ 0.27491865  1.20736571  3.65356129 11.19260833 48.5336944 ]
alpha-B1u nocc = 1  HOMO = -1.33060299315701  LUMO = -0.102493213651669
   mo_energy = [-1.33060299e+00 -1.02493214e-01 -1.84799531e-02  2.74918651e-01
  2.74918651e-01  3.67646251e-01  1.20736571e+00  1.20736571e+00
  2.13178212e+00  3.65356129e+00  3.65356129e+00  8.33050815e+00
  1.11926083e+01  1.11926083e+01  2.75800080e+01  4.85336944e+01
  4.85336944e+01  8.95295940e+01  2.93937221e+02]
alpha-B2u nocc = 1  HOMO = -1.330602993157  LUMO = -0.102493213651665
   mo_energy = [-1.33060299e+00 -1.02493214e-01 -1.84799531e-02  2.74918651e-01
  2.74918651e-01  3.67646251e-01  1.20736571e+00  1.20736571e+00
  2.13178212e+00  3.65356129e+00  3.65356129e+00  8.33050815e+00
  1.11926083e+01  1.11926083e+01  2.75800080e+01  4.85336944e+01
  4.85336944e+01  8.95295940e+01  2.93937221e+02]
alpha-B3u nocc = 1  HOMO = -1.330602993157  LUMO = -0.102493213651669
   mo_energy = [-1.33060299e+00 -1.02493214e-01 -1.84799531e-02  2.74918651e-01
  2.74918651e-01  3.67646251e-01  1.20736571e+00  1.20736571e+00
  2.13178212e+00  3.65356129e+00  3.65356129e+00  8.33050815e+00
  1.11926083e+01  1.11926083e+01  2.75800080e+01  4.85336944e+01
  4.85336944e+01  8.95295940e+01  2.93937221e+02]
beta-Ag nocc = 2  HOMO = -1.53094930975976  LUMO = -0.146533055037349
   mo_energy = [-2.12786631e+01 -1.53094931e+00 -1.46533055e-01 -1.19629387e-02
 -1.19629387e-02  3.15374928e-03  3.00883841e-01  3.00883841e-01
  6.39550711e-01  1.11657168e+00  1.11657168e+00  1.11657168e+00
  1.23455948e+00  1.23455948e+00  3.30888382e+00  3.70027885e+00
  3.70027885e+00  3.70027885e+00  3.90897600e+00  3.90897600e+00
  1.03296532e+01  1.03296532e+01  1.03296532e+01  1.19793103e+01
  1.19793103e+01  1.38148132e+01  3.86744051e+01  3.86744051e+01
  4.94622614e+01  1.39553216e+02  1.39553216e+02  1.63356183e+02
  6.71116537e+02]
beta-B1g nocc = 0
   mo_energy = [-1.19629387e-02  3.00883841e-01  1.11657168e+00  1.11657168e+00
  1.23455948e+00  3.70027885e+00  3.70027885e+00  3.90897600e+00
  1.03296532e+01  1.03296532e+01  1.19793103e+01  3.86744051e+01
  1.39553216e+02]
beta-B2g nocc = 0
   mo_energy = [-1.19629387e-02  3.00883841e-01  1.11657168e+00  1.11657168e+00
  1.23455948e+00  3.70027885e+00  3.70027885e+00  3.90897600e+00
  1.03296532e+01  1.03296532e+01  1.19793103e+01  3.86744051e+01
  1.39553216e+02]
beta-B3g nocc = 0
   mo_energy = [-1.19629387e-02  3.00883841e-01  1.11657168e+00  1.11657168e+00
  1.23455948e+00  3.70027885e+00  3.70027885e+00  3.90897600e+00
  1.03296532e+01  1.03296532e+01  1.19793103e+01  3.86744051e+01
  1.39553216e+02]
beta-Au nocc = 0
   mo_energy = [ 0.2757712   1.22204996  3.72649747 11.32570176 48.61744403]
beta-B1u nocc = 0
   mo_energy = [-3.82364955e-01 -9.06492476e-02  2.42574429e-03  2.75771197e-01
  2.75771197e-01  4.63963714e-01  1.22204996e+00  1.22204996e+00
  2.30466259e+00  3.72649747e+00  3.72649747e+00  8.48276171e+00
  1.13257018e+01  1.13257018e+01  2.76684549e+01  4.86174440e+01
  4.86174440e+01  8.95657464e+01  2.93948134e+02]
beta-B2u nocc = 0
   mo_energy = [-3.82364955e-01 -9.06492476e-02  2.42574429e-03  2.75771197e-01
  2.75771197e-01  4.63963714e-01  1.22204996e+00  1.22204996e+00
  2.30466259e+00  3.72649747e+00  3.72649747e+00  8.48276171e+00
  1.13257018e+01  1.13257018e+01  2.76684549e+01  4.86174440e+01
  4.86174440e+01  8.95657464e+01  2.93948134e+02]
beta-B3u nocc = 0
   mo_energy = [-3.82364955e-01 -9.06492476e-02  2.42574429e-03  2.75771197e-01
  2.75771197e-01  4.63963714e-01  1.22204996e+00  1.22204996e+00
  2.30466259e+00  3.72649747e+00  3.72649747e+00  8.48276171e+00
  1.13257018e+01  1.13257018e+01  2.76684549e+01  4.86174440e+01
  4.86174440e+01  8.95657464e+01  2.93948134e+02]
multiplicity <S^2> = 3.7555562  2S+1 = 4.0027771
E1 = -98.4670786165876  Ecoul = 24.09129244421484
cycle= 47 E= -74.3757861723728  delta_E= -5.68e-14  |g|= 1.25e-12  |ddm|= 3.23e-12
    CPU time for cycle= 47      0.35 sec, wall time      0.09 sec
diis-norm(errvec)=1.70067e-12
Linear dependence found in DIIS error vectors.
diis-c [-2.89052492e-16  1.25000000e-01  1.25000000e-01  1.25000000e-01
  1.25000000e-01  1.25000000e-01  1.25000000e-01  1.25000000e-01
  1.25000000e-01]
alpha HOMO (B2u) = -1.33060299315701  LUMO (Ag) = -0.156599886601511
alpha irrep_nelec = [2, 0, 0, 0, 0, 1, 1, 1]
beta  irrep_nelec = [2, 0, 0, 0, 0, 0, 0, 0]
alpha-Ag nocc = 2  HOMO = -2.07174596881888  LUMO = -0.156599886601511
   mo_energy = [-2.14113264e+01 -2.07174597e+00 -1.56599887e-01 -1.36882789e-02
 -1.36882789e-02 -1.05184742e-02  2.80771160e-01  2.80771160e-01
  5.76932295e-01  1.11428941e+00  1.11428941e+00  1.11428941e+00
  1.13162307e+00  1.13162307e+00  3.17663837e+00  3.67603596e+00
  3.67603596e+00  3.67603596e+00  3.71465599e+00  3.71465599e+00
  1.02547641e+01  1.02547641e+01  1.02547641e+01  1.18101961e+01
  1.18101961e+01  1.36964013e+01  3.85870072e+01  3.85870072e+01
  4.94052888e+01  1.39525683e+02  1.39525683e+02  1.63336508e+02
  6.71111088e+02]
alpha-B1g nocc = 0
   mo_energy = [-1.36882789e-02  2.80771160e-01  1.11428941e+00  1.11428941e+00
  1.13162307e+00  3.67603596e+00  3.67603596e+00  3.71465599e+00
  1.02547641e+01  1.02547641e+01  1.18101961e+01  3.85870072e+01
  1.39525683e+02]
alpha-B2g nocc = 0
   mo_energy = [-1.36882789e-02  2.80771160e-01  1.11428941e+00  1.11428941e+00
  1.13162307e+00  3.67603596e+00  3.67603596e+00  3.71465599e+00
  1.02547641e+01  1.02547641e+01  1.18101961e+01  3.85870072e+01
  1.39525683e+02]
alpha-B3g nocc = 0
   mo_energy = [-1.36882789e-02  2.80771160e-01  1.11428941e+00  1.11428941e+00
  1.13162307e+00  3.67603596e+00  3.67603596e+00  3.71465599e+00
  1.02547641e+01  1.02547641e+01  1.18101961e+01  3.85870072e+01
  1.39525683e+02]
alpha-Au nocc = 0
   mo_energy = [ 0.27491865  1.20736571  3.65356129 11.19260833 48.5336944 ]
alpha-B1u nocc = 1  HOMO = -1.33060299315702  LUMO = -0.102493213651693
   mo_energy = [-1.33060299e+00 -1.02493214e-01 -1.84799531e-02  2.74918651e-01
  2.74918651e-01  3.67646251e-01  1.20736571e+00  1.20736571e+00
  2.13178212e+00  3.65356129e+00  3.65356129e+00  8.33050815e+00
  1.11926083e+01  1.11926083e+01  2.75800080e+01  4.85336944e+01
  4.85336944e+01  8.95295940e+01  2.93937221e+02]
alpha-B2u nocc = 1  HOMO = -1.33060299315701  LUMO = -0.102493213651673
   mo_energy = [-1.33060299e+00 -1.02493214e-01 -1.84799531e-02  2.74918651e-01
  2.74918651e-01  3.67646251e-01  1.20736571e+00  1.20736571e+00
  2.13178212e+00  3.65356129e+00  3.65356129e+00  8.33050815e+00
  1.11926083e+01  1.11926083e+01  2.75800080e+01  4.85336944e+01
  4.85336944e+01  8.95295940e+01  2.93937221e+02]
alpha-B3u nocc = 1  HOMO = -1.33060299315702  LUMO = -0.102493213651684
   mo_energy = [-1.33060299e+00 -1.02493214e-01 -1.84799531e-02  2.74918651e-01
  2.74918651e-01  3.67646251e-01  1.20736571e+00  1.20736571e+00
  2.13178212e+00  3.65356129e+00  3.65356129e+00  8.33050815e+00
  1.11926083e+01  1.11926083e+01  2.75800080e+01  4.85336944e+01
  4.85336944e+01  8.95295940e+01  2.93937221e+02]
beta-Ag nocc = 2  HOMO = -1.53094930975951  LUMO = -0.146533055037354
   mo_energy = [-2.12786631e+01 -1.53094931e+00 -1.46533055e-01 -1.19629387e-02
 -1.19629387e-02  3.15374928e-03  3.00883841e-01  3.00883841e-01
  6.39550711e-01  1.11657168e+00  1.11657168e+00  1.11657168e+00
  1.23455948e+00  1.23455948e+00  3.30888382e+00  3.70027885e+00
  3.70027885e+00  3.70027885e+00  3.90897600e+00  3.90897600e+00
  1.03296532e+01  1.03296532e+01  1.03296532e+01  1.19793103e+01
  1.19793103e+01  1.38148132e+01  3.86744051e+01  3.86744051e+01
  4.94622614e+01  1.39553216e+02  1.39553216e+02  1.63356183e+02
  6.71116537e+02]
beta-B1g nocc = 0
   mo_energy = [-1.19629387e-02  3.00883841e-01  1.11657168e+00  1.11657168e+00
  1.23455948e+00  3.70027885e+00  3.70027885e+00  3.90897600e+00
  1.03296532e+01  1.03296532e+01  1.19793103e+01  3.86744051e+01
  1.39553216e+02]
beta-B2g nocc = 0
   mo_energy = [-1.19629387e-02  3.00883841e-01  1.11657168e+00  1.11657168e+00
  1.23455948e+00  3.70027885e+00  3.70027885e+00  3.90897600e+00
  1.03296532e+01  1.03296532e+01  1.19793103e+01  3.86744051e+01
  1.39553216e+02]
beta-B3g nocc = 0
   mo_energy = [-1.19629387e-02  3.00883841e-01  1.11657168e+00  1.11657168e+00
  1.23455948e+00  3.70027885e+00  3.70027885e+00  3.90897600e+00
  1.03296532e+01  1.03296532e+01  1.19793103e+01  3.86744051e+01
  1.39553216e+02]
beta-Au nocc = 0
   mo_energy = [ 0.2757712   1.22204996  3.72649747 11.32570176 48.61744403]
beta-B1u nocc = 0
   mo_energy = [-3.82364955e-01 -9.06492476e-02  2.42574429e-03  2.75771197e-01
  2.75771197e-01  4.63963714e-01  1.22204996e+00  1.22204996e+00
  2.30466259e+00  3.72649747e+00  3.72649747e+00  8.48276171e+00
  1.13257018e+01  1.13257018e+01  2.76684549e+01  4.86174440e+01
  4.86174440e+01  8.95657464e+01  2.93948134e+02]
beta-B2u nocc = 0
   mo_energy = [-3.82364955e-01 -9.06492476e-02  2.42574429e-03  2.75771197e-01
  2.75771197e-01  4.63963714e-01  1.22204996e+00  1.22204996e+00
  2.30466259e+00  3.72649747e+00  3.72649747e+00  8.48276171e+00
  1.13257018e+01  1.13257018e+01  2.76684549e+01  4.86174440e+01
  4.86174440e+01  8.95657464e+01  2.93948134e+02]
beta-B3u nocc = 0
   mo_energy = [-3.82364955e-01 -9.06492476e-02  2.42574429e-03  2.75771197e-01
  2.75771197e-01  4.63963714e-01  1.22204996e+00  1.22204996e+00
  2.30466259e+00  3.72649747e+00  3.72649747e+00  8.48276171e+00
  1.13257018e+01  1.13257018e+01  2.76684549e+01  4.86174440e+01
  4.86174440e+01  8.95657464e+01  2.93948134e+02]
multiplicity <S^2> = 3.7555562  2S+1 = 4.0027771
E1 = -98.46707861658773  Ecoul = 24.091292444214986
cycle= 48 E= -74.3757861723727  delta_E= 1.42e-14  |g|= 1.1e-12  |ddm|= 5.39e-13
    CPU time for cycle= 48      0.35 sec, wall time      0.09 sec
alpha HOMO (B2u) = -1.33060299315704  LUMO (Ag) = -0.156599886601503
alpha irrep_nelec = [2, 0, 0, 0, 0, 1, 1, 1]
beta  irrep_nelec = [2, 0, 0, 0, 0, 0, 0, 0]
alpha-Ag nocc = 2  HOMO = -2.07174596881904  LUMO = -0.156599886601503
   mo_energy = [-2.14113264e+01 -2.07174597e+00 -1.56599887e-01 -1.36882789e-02
 -1.36882789e-02 -1.05184742e-02  2.80771160e-01  2.80771160e-01
  5.76932295e-01  1.11428941e+00  1.11428941e+00  1.11428941e+00
  1.13162307e+00  1.13162307e+00  3.17663837e+00  3.67603596e+00
  3.67603596e+00  3.67603596e+00  3.71465599e+00  3.71465599e+00
  1.02547641e+01  1.02547641e+01  1.02547641e+01  1.18101961e+01
  1.18101961e+01  1.36964013e+01  3.85870072e+01  3.85870072e+01
  4.94052888e+01  1.39525683e+02  1.39525683e+02  1.63336508e+02
  6.71111088e+02]
alpha-B1g nocc = 0
   mo_energy = [-1.36882789e-02  2.80771160e-01  1.11428941e+00  1.11428941e+00
  1.13162307e+00  3.67603596e+00  3.67603596e+00  3.71465599e+00
  1.02547641e+01  1.02547641e+01  1.18101961e+01  3.85870072e+01
  1.39525683e+02]
alpha-B2g nocc = 0
   mo_energy = [-1.36882789e-02  2.80771160e-01  1.11428941e+00  1.11428941e+00
  1.13162307e+00  3.67603596e+00  3.67603596e+00  3.71465599e+00
  1.02547641e+01  1.02547641e+01  1.18101961e+01  3.85870072e+01
  1.39525683e+02]
alpha-B3g nocc = 0
   mo_energy = [-1.36882789e-02  2.80771160e-01  1.11428941e+00  1.11428941e+00
  1.13162307e+00  3.67603596e+00  3.67603596e+00  3.71465599e+00
  1.02547641e+01  1.02547641e+01  1.18101961e+01  3.85870072e+01
  1.39525683e+02]
alpha-Au nocc = 0
   mo_energy = [ 0.27491865  1.20736571  3.65356129 11.19260833 48.5336944 ]
alpha-B1u nocc = 1  HOMO = -1.33060299315705  LUMO = -0.102493213651675
   mo_energy = [-1.33060299e+00 -1.02493214e-01 -1.84799531e-02  2.74918651e-01
  2.74918651e-01  3.67646251e-01  1.20736571e+00  1.20736571e+00
  2.13178212e+00  3.65356129e+00  3.65356129e+00  8.33050815e+00
  1.11926083e+01  1.11926083e+01  2.75800080e+01  4.85336944e+01
  4.85336944e+01  8.95295940e+01  2.93937221e+02]
alpha-B2u nocc = 1  HOMO = -1.33060299315704  LUMO = -0.102493213651677
   mo_energy = [-1.33060299e+00 -1.02493214e-01 -1.84799531e-02  2.74918651e-01
  2.74918651e-01  3.67646251e-01  1.20736571e+00  1.20736571e+00
  2.13178212e+00  3.65356129e+00  3.65356129e+00  8.33050815e+00
  1.11926083e+01  1.11926083e+01  2.75800080e+01  4.85336944e+01
  4.85336944e+01  8.95295940e+01  2.93937221e+02]
alpha-B3u nocc = 1  HOMO = -1.33060299315705  LUMO = -0.102493213651673
   mo_energy = [-1.33060299e+00 -1.02493214e-01 -1.84799531e-02  2.74918651e-01
  2.74918651e-01  3.67646251e-01  1.20736571e+00  1.20736571e+00
  2.13178212e+00  3.65356129e+00  3.65356129e+00  8.33050815e+00
  1.11926083e+01  1.11926083e+01  2.75800080e+01  4.85336944e+01
  4.85336944e+01  8.95295940e+01  2.93937221e+02]
beta-Ag nocc = 2  HOMO = -1.53094930975924  LUMO = -0.146533055037326
   mo_energy = [-2.12786631e+01 -1.53094931e+00 -1.46533055e-01 -1.19629387e-02
 -1.19629387e-02  3.15374928e-03  3.00883841e-01  3.00883841e-01
  6.39550711e-01  1.11657168e+00  1.11657168e+00  1.11657168e+00
  1.23455948e+00  1.23455948e+00  3.30888382e+00  3.70027885e+00
  3.70027885e+00  3.70027885e+00  3.90897600e+00  3.90897600e+00
  1.03296532e+01  1.03296532e+01  1.03296532e+01  1.19793103e+01
  1.19793103e+01  1.38148132e+01  3.86744051e+01  3.86744051e+01
  4.94622614e+01  1.39553216e+02  1.39553216e+02  1.63356183e+02
  6.71116537e+02]
beta-B1g nocc = 0
   mo_energy = [-1.19629387e-02  3.00883841e-01  1.11657168e+00  1.11657168e+00
  1.23455948e+00  3.70027885e+00  3.70027885e+00  3.90897600e+00
  1.03296532e+01  1.03296532e+01  1.19793103e+01  3.86744051e+01
  1.39553216e+02]
beta-B2g nocc = 0
   mo_energy = [-1.19629387e-02  3.00883841e-01  1.11657168e+00  1.11657168e+00
  1.23455948e+00  3.70027885e+00  3.70027885e+00  3.90897600e+00
  1.03296532e+01  1.03296532e+01  1.19793103e+01  3.86744051e+01
  1.39553216e+02]
beta-B3g nocc = 0
   mo_energy = [-1.19629387e-02  3.00883841e-01  1.11657168e+00  1.11657168e+00
  1.23455948e+00  3.70027885e+00  3.70027885e+00  3.90897600e+00
  1.03296532e+01  1.03296532e+01  1.19793103e+01  3.86744051e+01
  1.39553216e+02]
beta-Au nocc = 0
   mo_energy = [ 0.2757712   1.22204996  3.72649747 11.32570176 48.61744403]
beta-B1u nocc = 0
   mo_energy = [-3.82364955e-01 -9.06492476e-02  2.42574429e-03  2.75771197e-01
  2.75771197e-01  4.63963714e-01  1.22204996e+00  1.22204996e+00
  2.30466259e+00  3.72649747e+00  3.72649747e+00  8.48276171e+00
  1.13257018e+01  1.13257018e+01  2.76684549e+01  4.86174440e+01
  4.86174440e+01  8.95657464e+01  2.93948134e+02]
beta-B2u nocc = 0
   mo_energy = [-3.82364955e-01 -9.06492476e-02  2.42574429e-03  2.75771197e-01
  2.75771197e-01  4.63963714e-01  1.22204996e+00  1.22204996e+00
  2.30466259e+00  3.72649747e+00  3.72649747e+00  8.48276171e+00
  1.13257018e+01  1.13257018e+01  2.76684549e+01  4.86174440e+01
  4.86174440e+01  8.95657464e+01  2.93948134e+02]
beta-B3u nocc = 0
   mo_energy = [-3.82364955e-01 -9.06492476e-02  2.42574429e-03  2.75771197e-01
  2.75771197e-01  4.63963714e-01  1.22204996e+00  1.22204996e+00
  2.30466259e+00  3.72649747e+00  3.72649747e+00  8.48276171e+00
  1.13257018e+01  1.13257018e+01  2.76684549e+01  4.86174440e+01
  4.86174440e+01  8.95657464e+01  2.93948134e+02]
multiplicity <S^2> = 3.7555562  2S+1 = 4.0027771
E1 = -98.46707861658798  Ecoul = 24.091292444215156
Extra cycle  E= -74.3757861723728  delta_E= -8.53e-14  |g|= 1.14e-12  |ddm|= 5.39e-13
    CPU time for scf_cycle     22.86 sec, wall time      5.78 sec
    CPU time for SCF     22.87 sec, wall time      5.78 sec
converged SCF energy = -74.3757861723728  <S^2> = 3.7555562  2S+1 = 4.0027771
irreps of each MO ['Ag' 'Ag' 'B1u' 'B2u' 'B3u' 'Ag' 'B1u' 'B2u' 'B3u' 'B1u' 'B2u' 'B3u' 'Ag'
 'Ag' 'B1g' 'B2g' 'B3g' 'Ag' 'Au' 'B1u' 'B1u' 'B2u' 'B2u' 'B3u' 'B3u' 'Ag'
 'Ag' 'B1g' 'B2g' 'B3g' 'B1u' 'B2u' 'B3u' 'Ag' 'Ag' 'Ag' 'Ag' 'B1g' 'B1g'
 'B2g' 'B2g' 'B3g' 'B3g' 'Ag' 'Ag' 'B1g' 'B2g' 'B3g' 'Au' 'B1u' 'B1u'
 'B2u' 'B2u' 'B3u' 'B3u' 'B1u' 'B2u' 'B3u' 'Ag' 'Au' 'B1u' 'B1u' 'B2u'
 'B2u' 'B3u' 'B3u' 'Ag' 'Ag' 'Ag' 'B1g' 'B1g' 'B2g' 'B2g' 'B3g' 'B3g' 'Ag'
 'Ag' 'B1g' 'B2g' 'B3g' 'B1u' 'B2u' 'B3u' 'Ag' 'Ag' 'Ag' 'B1g' 'B1g' 'B2g'
 'B2g' 'B3g' 'B3g' 'Au' 'B1u' 'B1u' 'B2u' 'B2u' 'B3u' 'B3u' 'Ag' 'Ag'
 'B1g' 'B2g' 'B3g' 'Ag' 'B1u' 'B2u' 'B3u' 'Ag' 'Ag' 'B1g' 'B2g' 'B3g' 'Au'
 'B1u' 'B1u' 'B2u' 'B2u' 'B3u' 'B3u' 'Ag' 'B1u' 'B2u' 'B3u' 'Ag' 'Ag'
 'B1g' 'B2g' 'B3g' 'Ag' 'B1u' 'B2u' 'B3u' 'Ag']
irreps of each MO ['Ag' 'Ag' 'B1u' 'B2u' 'B3u' 'Ag' 'B1u' 'B2u' 'B3u' 'Ag' 'Ag' 'B1g' 'B2g'
 'B3g' 'B1u' 'B2u' 'B3u' 'Ag' 'Au' 'B1u' 'B1u' 'B2u' 'B2u' 'B3u' 'B3u'
 'Ag' 'Ag' 'B1g' 'B2g' 'B3g' 'B1u' 'B2u' 'B3u' 'Ag' 'Ag' 'Ag' 'Ag' 'B1g'
 'B1g' 'B2g' 'B2g' 'B3g' 'B3g' 'Au' 'B1u' 'B1u' 'B2u' 'B2u' 'B3u' 'B3u'
 'Ag' 'Ag' 'B1g' 'B2g' 'B3g' 'B1u' 'B2u' 'B3u' 'Ag' 'Ag' 'Ag' 'Ag' 'B1g'
 'B1g' 'B2g' 'B2g' 'B3g' 'B3g' 'Au' 'B1u' 'B1u' 'B2u' 'B2u' 'B3u' 'B3u'
 'Ag' 'Ag' 'B1g' 'B2g' 'B3g' 'B1u' 'B2u' 'B3u' 'Ag' 'Ag' 'Ag' 'B1g' 'B1g'
 'B2g' 'B2g' 'B3g' 'B3g' 'Au' 'B1u' 'B1u' 'B2u' 'B2u' 'B3u' 'B3u' 'Ag'
 'Ag' 'B1g' 'B2g' 'B3g' 'Ag' 'B1u' 'B2u' 'B3u' 'Ag' 'Ag' 'B1g' 'B2g' 'B3g'
 'Au' 'B1u' 'B1u' 'B2u' 'B2u' 'B3u' 'B3u' 'Ag' 'B1u' 'B2u' 'B3u' 'Ag' 'Ag'
 'B1g' 'B2g' 'B3g' 'Ag' 'B1u' 'B2u' 'B3u' 'Ag']
irreps of each MO ['Ag' 'Ag' 'B1u' 'B2u' 'B3u' 'Ag' 'B1u' 'B2u' 'B3u' 'Ag' 'B1g' 'B3g' 'B2g'
 'Ag' 'B1u' 'B2u' 'B3u' 'Ag' 'B1u' 'B2u' 'B3u' 'Au' 'B1u' 'B3u' 'B2u' 'Ag'
 'B3g' 'B2g' 'B1g' 'Ag' 'B1u' 'B2u' 'B3u' 'Ag' 'Ag' 'B1g' 'B2g' 'Ag' 'B1g'
 'B3g' 'B2g' 'B3g' 'Ag' 'Ag' 'Ag' 'B3g' 'B2g' 'B1g' 'B3u' 'B1u' 'B1u'
 'B2u' 'Au' 'B2u' 'B3u' 'B3u' 'B2u' 'B1u' 'Ag' 'B3u' 'B1u' 'B2u' 'B2u'
 'B1u' 'B3u' 'Au' 'B3g' 'Ag' 'B1g' 'B2g' 'B3g' 'Ag' 'Ag' 'B1g' 'B2g' 'Ag'
 'B1g' 'Ag' 'B3g' 'B2g' 'B3u' 'B2u' 'B1u' 'B1g' 'Ag' 'B3g' 'B2g' 'B2g'
 'Ag' 'B3g' 'B1g' 'Ag' 'B2u' 'B3u' 'B2u' 'Au' 'B1u' 'B1u' 'B3u' 'B2g'
 'B3g' 'B1g' 'Ag' 'Ag' 'Ag' 'B3u' 'B2u' 'B1u' 'B2g' 'B3g' 'Ag' 'B1g' 'Ag'
 'B1u' 'B2u' 'B3u' 'Au' 'B2u' 'B3u' 'B1u' 'Ag' 'B3u' 'B2u' 'B1u' 'Ag'
 'B2g' 'B3g' 'B1g' 'Ag' 'Ag' 'B2u' 'B3u' 'B1u' 'Ag']
