#INFO: **** input file is /lustre09/project/6004934/jaafar1/PySCF-MRCC/Neon/Neutral/AE/dawCV3Z/RHF/input.py ****
import pyscf
from pyscf import cc, lib, tools, scf, symm, ao2mo
from pyscf.gto.basis import parse_gaussian
from pyscf.scf import atom_hf

name = 'out'
mol = pyscf.M(
    atom = '''
        NE
    ''',
    unit = 'angstrom',
    basis = {
            'NE' : parse_gaussian.load('Ne-d-aug-cc-pwCVTZ.gbs', 'NE')
    },
    charge = 0,
    spin = 0,
    symmetry = True,
    verbose = 9,
    symmetry_subgroup = 'D2h',
    output = name +'.txt',
    max_memory = 8000,
)

original_AtomSphAverageRHF = atom_hf.AtomSphAverageRHF

class CustomAtomSphAverageRHF(original_AtomSphAverageRHF):
    def __init__(self, mol):
        super().__init__(mol)
        self.max_cycle = 9999
        self.direct_scf = False

atom_hf.AtomSphAverageRHF = CustomAtomSphAverageRHF

mf = mol.RHF().set(
    conv_tol=1e-15,
    max_cycle=9999,
    ddm_tol=1e-14,
    direct_scf=False,
    chkfile=name + '.chk',
    init_guess='atom',
    irrep_nelec={'Ag': 4, 'B3u': 2, 'B2u': 2, 'B1u': 2}
)

mf.kernel()

atom_hf.AtomSphAverageRHF = original_AtomSphAverageRHF

#pyscf.tools.fcidump.from_chkfile_uhf('FCIdump',name+'.chk',tol=1e-18, float_format='% 0.20E',molpro_orbsym=False,orbsym=None)
pyscf.tools.fcidump.from_scf(mf,'fort.55',tol=1e-18, float_format='% 0.20E',molpro_orbsym=False)
#MRCCInterface.run_mrcc(mf, fort_file='fort.55', mrcc_input_file='MINP', tol=1e-18, float_format='% 0.20E', molpro_orbsym=False)
#INFO: ******************** input file end ********************


System: uname_result(system='Linux', node='rc31804', release='5.14.0-687.5.4.el9_8.x86_64', version='#1 SMP PREEMPT_DYNAMIC Thu May 28 09:20:26 EDT 2026', machine='x86_64')  Threads 4
Python 3.13.2 (main, Feb  5 2025, 15:06:39) [GCC 13.3.0]
numpy 2.2.2  scipy 1.15.1  h5py 3.13.0
Date: Mon Jun  8 21:40:27 2026
PySCF version 2.10.0
PySCF path  /home/jaafar1/links/projects/rrg-tzeng/jaafar1/VENV/MRCCInterface/lib/python3.13/site-packages/pyscf

[CONFIG] ARGPARSE = False
[CONFIG] DEBUG = False
[CONFIG] MAX_MEMORY = 4000
[CONFIG] TMPDIR = /tmp
[CONFIG] UNIT = angstrom
[CONFIG] VERBOSE = 3
[CONFIG] conf_file = None
[INPUT] verbose = 9
[INPUT] max_memory = 8000 
[INPUT] num. atoms = 1
[INPUT] num. electrons = 10
[INPUT] charge = 0
[INPUT] spin (= nelec alpha-beta = 2S) = 0
[INPUT] symmetry True subgroup D2h
[INPUT] Mole.unit = angstrom
[INPUT] Symbol           X                Y                Z      unit          X                Y                Z       unit  Magmom
[INPUT]  1 Ne     0.000000000000   0.000000000000   0.000000000000 AA    0.000000000000   0.000000000000   0.000000000000 Bohr   0.0
[INPUT] ---------------- BASIS SET ---------------- 
[INPUT] l, kappa, [nprim/nctr], expnt,             c_1 c_2 ...
[INPUT] Ne
[INPUT] 0    0    [1    /1   ]  23.829               1
[INPUT] 0    0    [10   /2   ]  24350             0.000502 -0.000118
                                3650              0.003881 -0.000915
                                829.6             0.019997 -0.004737
                                234               0.078418 -0.019233
                                75.61             0.229676 -0.060369
                                26.73             0.432722 -0.142508
                                9.927             0.350642 -0.17771
                                2.836             0.043911 0.177352
                                1.102             -0.007645 0.605836
                                0.3782            0.002375 0.365109
[INPUT] 0    0    [1    /1   ]  9.883                1
[INPUT] 0    0    [1    /1   ]  2.836                1
[INPUT] 0    0    [1    /1   ]  0.3782               1
[INPUT] 0    0    [1    /1   ]  0.1133               1
[INPUT] 0    0    [1    /1   ]  0.0339               1
[INPUT] 1    0    [1    /1   ]  59.242               1
[INPUT] 1    0    [1    /1   ]  16.275               1
[INPUT] 1    0    [1    /1   ]  1.143                1
[INPUT] 1    0    [5    /1   ]  54.7              0.017151
                                12.43             0.107656
                                3.679             0.321681
                                1.143             0.485232
                                0.33              0.332584
[INPUT] 1    0    [1    /1   ]  0.33                 1
[INPUT] 1    0    [1    /1   ]  0.09175              1
[INPUT] 1    0    [1    /1   ]  0.0255               1
[INPUT] 2    0    [1    /1   ]  17.528               1
[INPUT] 2    0    [1    /1   ]  4.014                1
[INPUT] 2    0    [1    /1   ]  1.096                1
[INPUT] 2    0    [1    /1   ]  0.386                1
[INPUT] 2    0    [1    /1   ]  0.136                1
[INPUT] 3    0    [1    /1   ]  2.544                1
[INPUT] 3    0    [1    /1   ]  1.084                1
[INPUT] 3    0    [1    /1   ]  0.462                1

nuclear repulsion = 0
point group symmetry = SO3, use subgroup D2h
symmetry origin: [0. 0. 0.]
symmetry axis x: [1. 0. 0.]
symmetry axis y: [0. 1. 0.]
symmetry axis z: [0. 0. 1.]
num. orbitals of irrep Ag = 18
num. orbitals of irrep B1g = 5
num. orbitals of irrep B2g = 5
num. orbitals of irrep B3g = 5
num. orbitals of irrep Au = 3
num. orbitals of irrep B1u = 13
num. orbitals of irrep B2u = 13
num. orbitals of irrep B3u = 13
number of shells = 22
number of NR pGTOs = 95
number of NR cGTOs = 75
basis = {'NE': [[0, [23.829, 1.0]], [0, [24350.0, 0.000502, -0.000118], [3650.0, 0.003881, -0.000915], [829.6, 0.019997, -0.004737], [234.0, 0.078418, -0.019233], [75.61, 0.229676, -0.060369], [26.73, 0.432722, -0.142508], [9.927, 0.350642, -0.17771], [2.836, 0.043911, 0.177352], [1.102, -0.007645, 0.605836], [0.3782, 0.002375, 0.365109]], [0, [9.883, 1.0]], [0, [2.836, 1.0]], [0, [0.3782, 1.0]], [0, [0.1133, 1.0]], [0, [0.0339, 1.0]], [1, [59.242, 1.0]], [1, [16.275, 1.0]], [1, [1.143, 1.0]], [1, [54.7, 0.017151], [12.43, 0.107656], [3.679, 0.321681], [1.143, 0.485232], [0.33, 0.332584]], [1, [0.33, 1.0]], [1, [0.09175, 1.0]], [1, [0.0255, 1.0]], [2, [17.528, 1.0]], [2, [4.014, 1.0]], [2, [1.096, 1.0]], [2, [0.386, 1.0]], [2, [0.136, 1.0]], [3, [2.544, 1.0]], [3, [1.084, 1.0]], [3, [0.462, 1.0]]]}
ecp = {}
bas 0, expnt(s) = [23.829]
bas 1, expnt(s) = [2.435e+04 3.650e+03 8.296e+02 2.340e+02 7.561e+01 2.673e+01 9.927e+00
 2.836e+00 1.102e+00 3.782e-01]
bas 2, expnt(s) = [9.883]
bas 3, expnt(s) = [2.836]
bas 4, expnt(s) = [0.3782]
bas 5, expnt(s) = [0.1133]
bas 6, expnt(s) = [0.0339]
bas 7, expnt(s) = [59.242]
bas 8, expnt(s) = [16.275]
bas 9, expnt(s) = [1.143]
bas 10, expnt(s) = [54.7   12.43   3.679  1.143  0.33 ]
bas 11, expnt(s) = [0.33]
bas 12, expnt(s) = [0.09175]
bas 13, expnt(s) = [0.0255]
bas 14, expnt(s) = [17.528]
bas 15, expnt(s) = [4.014]
bas 16, expnt(s) = [1.096]
bas 17, expnt(s) = [0.386]
bas 18, expnt(s) = [0.136]
bas 19, expnt(s) = [2.544]
bas 20, expnt(s) = [1.084]
bas 21, expnt(s) = [0.462]
CPU time:         1.34
arg.atm = [[10 20  1 23  0  0]]
arg.bas = [[  0   0   1   1   0  24  25   0]
 [  0   0  10   2   0  26  36   0]
 [  0   0   1   1   0  56  57   0]
 [  0   0   1   1   0  58  59   0]
 [  0   0   1   1   0  60  61   0]
 [  0   0   1   1   0  62  63   0]
 [  0   0   1   1   0  64  65   0]
 [  0   1   1   1   0  66  67   0]
 [  0   1   1   1   0  68  69   0]
 [  0   1   1   1   0  70  71   0]
 [  0   1   5   1   0  72  77   0]
 [  0   1   1   1   0  82  83   0]
 [  0   1   1   1   0  84  85   0]
 [  0   1   1   1   0  86  87   0]
 [  0   2   1   1   0  88  89   0]
 [  0   2   1   1   0  90  91   0]
 [  0   2   1   1   0  92  93   0]
 [  0   2   1   1   0  94  95   0]
 [  0   2   1   1   0  96  97   0]
 [  0   3   1   1   0  98  99   0]
 [  0   3   1   1   0 100 101   0]
 [  0   3   1   1   0 102 103   0]]
arg.env = [ 0.00000000e+00  0.00000000e+00  0.00000000e+00  0.00000000e+00
  0.00000000e+00  0.00000000e+00  0.00000000e+00  0.00000000e+00
  0.00000000e+00  0.00000000e+00  0.00000000e+00  0.00000000e+00
  0.00000000e+00  0.00000000e+00  0.00000000e+00  0.00000000e+00
  0.00000000e+00  0.00000000e+00  0.00000000e+00  0.00000000e+00
  0.00000000e+00  0.00000000e+00  0.00000000e+00  0.00000000e+00
  2.38290000e+01  2.72486121e+01  2.43500000e+04  3.65000000e+03
  8.29600000e+02  2.34000000e+02  7.56100000e+01  2.67300000e+01
  9.92700000e+00  2.83600000e+00  1.10200000e+00  3.78200000e-01
  2.47225196e+00  4.60445338e+00  7.80964321e+00  1.18533865e+01
  1.48786947e+01  1.28520671e+01  4.95441338e+00  2.42447543e-01
 -2.07743993e-02  2.89380689e-03 -5.81127619e-01 -1.08556549e+00
 -1.84999361e+00 -2.90719531e+00 -3.91078279e+00 -4.23256610e+00
 -2.51096505e+00  9.79221737e-01  1.64629082e+00  4.44865746e-01
  9.88300000e+00  1.40825603e+01  2.83600000e+00  5.52134258e+00
  3.78200000e-01  1.21844567e+00  1.13300000e-01  4.93386721e-01
  3.39000000e-02  1.99601958e-01  5.92420000e+01  4.79481143e+02
  1.62750000e+01  9.53642591e+01  1.14300000e+00  3.44780091e+00
  5.47000000e+01  1.24300000e+01  3.67900000e+00  1.14300000e+00
  3.30000000e-01  7.44317023e+00  7.33012696e+00  4.78158622e+00
  1.67298316e+00  2.42676724e-01  3.30000000e-01  7.29670549e-01
  9.17500000e-02  1.47313309e-01  2.55000000e-02  2.97275842e-02
  1.75280000e+01  3.91796926e+02  4.01400000e+00  2.97022795e+01
  1.09600000e+00  3.06335872e+00  3.86000000e-01  4.93238728e-01
  1.36000000e-01  7.94735249e-02  2.54400000e+00  1.61221832e+01
  1.08400000e+00  2.36497333e+00  4.62000000e-01  3.47100154e-01]
ecpbas  = []


******** <class 'pyscf.scf.hf_symm.SymAdaptedRHF'> ********
method = SymAdaptedRHF
initial guess = atom
damping factor = 0
level_shift factor = 0
DIIS = <class 'pyscf.scf.diis.CDIIS'>
diis_start_cycle = 1
diis_space = 8
diis_damp = 0
SCF conv_tol = 1e-15
SCF conv_tol_grad = None
SCF ddm_tol = 1e-14
SCF max_cycles = 9999
direct_scf = False
chkfile to save SCF result = out.chk
max_memory 8000 MB (current use 123 MB)
Freeze 10 electrons in irreps ['Ag', 'B3u', 'B2u', 'B1u']
    0 free electrons in irreps B1g B2g B3g Au
cond(S) = 777.7527733482243

WARN: Singularity detected in overlap matrix (condition number =  778). SCF may be inaccurate and hard to converge.

Set gradient conv threshold to 3.16228e-08
Initial guess from superposition of atomic densities.
Spherically averaged atomic HF for {'Ne'}


******** <class '__main__.CustomAtomSphAverageRHF'> ********
method = CustomAtomSphAverageRHF
initial guess = minao
damping factor = 0
level_shift factor = 0
DIIS = <class 'pyscf.scf.diis.CDIIS'>
diis_start_cycle = 1
diis_space = 8
diis_damp = 0
SCF conv_tol = 1e-09
SCF conv_tol_grad = None
SCF ddm_tol = 1e-10
SCF max_cycles = 9999
direct_scf = False
chkfile to save SCF result = /tmp/tmp3_u2yf7r
max_memory 8000 MB (current use 124 MB)
atom = Ne
Set gradient conv threshold to 3.16228e-05
Initial guess from minao.
Nelec from initial guess = 9.999189188261425
E1 = -183.59102548205482  E_coul = 55.075371671110155
init E= -128.515653810945
l = 0  e_0 = -32.5562298
l = 0  e_1 = -1.85297856
l = 0  e_2 = 0.0572859245
l = 0  e_3 = 0.373728359
l = 0  e_4 = 1.85186093
l = 0  e_5 = 7.95857656
l = 0  e_6 = 34.4615992
l = 0  e_7 = 165.282216
l = 1  e_0 = -0.774395756
l = 1  e_1 = 0.0611043073
l = 1  e_2 = 0.312750346
l = 1  e_3 = 1.43448767
l = 1  e_4 = 6.1417076
l = 1  e_5 = 29.7332638
l = 1  e_6 = 139.7189
l = 2  e_0 = 0.431424212
l = 2  e_1 = 1.43026397
l = 2  e_2 = 3.87704449
l = 2  e_3 = 12.0799931
l = 2  e_4 = 51.50391
l = 3  e_0 = 1.85122076
l = 3  e_1 = 5.25683569
l = 3  e_2 = 12.8537778
    CPU time for initialize scf      0.18 sec, wall time      0.09 sec
l = 0  e_0 = -32.5562298
l = 0  e_1 = -1.85297856
l = 0  e_2 = 0.0572859245
l = 0  e_3 = 0.373728359
l = 0  e_4 = 1.85186093
l = 0  e_5 = 7.95857656
l = 0  e_6 = 34.4615992
l = 0  e_7 = 165.282216
l = 1  e_0 = -0.774395756
l = 1  e_1 = 0.0611043073
l = 1  e_2 = 0.312750346
l = 1  e_3 = 1.43448767
l = 1  e_4 = 6.1417076
l = 1  e_5 = 29.7332638
l = 1  e_6 = 139.7189
l = 2  e_0 = 0.431424212
l = 2  e_1 = 1.43026397
l = 2  e_2 = 3.87704449
l = 2  e_3 = 12.0799931
l = 2  e_4 = 51.50391
l = 3  e_0 = 1.85122076
l = 3  e_1 = 5.25683569
l = 3  e_2 = 12.8537778
l = 0  occ = 2 + 0
l = 1  occ = 1 + 0
l = 2  occ = 0 + 0
l = 3  occ = 0 + 0
E1 = -182.01470445344  E_coul = 53.48512695630104
cycle= 1 E= -128.529577497139  delta_E= -0.0139  |g|=    0  |ddm|= 0.165
    CPU time for cycle= 1      0.02 sec, wall time      0.01 sec
diis-norm(errvec)=0.297778
diis-c [-0.08867192  1.        ]
l = 0  e_0 = -32.8895589
l = 0  e_1 = -1.97204567
l = 0  e_2 = 0.0561733043
l = 0  e_3 = 0.36366857
l = 0  e_4 = 1.8043009
l = 0  e_5 = 7.82344865
l = 0  e_6 = 34.208212
l = 0  e_7 = 164.943552
l = 1  e_0 = -0.887818654
l = 1  e_1 = 0.0609576453
l = 1  e_2 = 0.307574006
l = 1  e_3 = 1.39108676
l = 1  e_4 = 5.99910622
l = 1  e_5 = 29.4659307
l = 1  e_6 = 139.379796
l = 2  e_0 = 0.429411006
l = 2  e_1 = 1.40868065
l = 2  e_2 = 3.80702219
l = 2  e_3 = 11.9138516
l = 2  e_4 = 51.2192809
l = 3  e_0 = 1.84206587
l = 3  e_1 = 5.21238075
l = 3  e_2 = 12.7359928
l = 0  occ = 2 + 0
l = 1  occ = 1 + 0
l = 2  occ = 0 + 0
l = 3  occ = 0 + 0
E1 = -182.8074133349488  E_coul = 54.27510483531284
cycle= 2 E= -128.532308499636  delta_E= -0.00273  |g|=    0  |ddm|= 0.116
    CPU time for cycle= 2      0.03 sec, wall time      0.01 sec
diis-norm(errvec)=0.15235
diis-c [-4.63810485e-05  3.38293409e-01  6.61706591e-01]
l = 0  e_0 = -32.7776427
l = 0  e_1 = -1.93301927
l = 0  e_2 = 0.0565875983
l = 0  e_3 = 0.366921812
l = 0  e_4 = 1.81941345
l = 0  e_5 = 7.86760192
l = 0  e_6 = 34.2933554
l = 0  e_7 = 165.05557
l = 1  e_0 = -0.850796879
l = 1  e_1 = 0.0610491971
l = 1  e_2 = 0.309374205
l = 1  e_3 = 1.40510171
l = 1  e_4 = 6.04575765
l = 1  e_5 = 29.5555629
l = 1  e_6 = 139.492788
l = 2  e_0 = 0.430080741
l = 2  e_1 = 1.41521965
l = 2  e_2 = 3.82930246
l = 2  e_3 = 11.9683904
l = 2  e_4 = 51.3156792
l = 3  e_0 = 1.84480949
l = 3  e_1 = 5.22588389
l = 3  e_2 = 12.7736943
l = 0  occ = 2 + 0
l = 1  occ = 1 + 0
l = 2  occ = 0 + 0
l = 3  occ = 0 + 0
E1 = -182.5361207018213  E_coul = 54.00281290763746
cycle= 3 E= -128.533307794184  delta_E= -0.000999  |g|=    0  |ddm|= 0.0386
    CPU time for cycle= 3      0.02 sec, wall time      0.01 sec
diis-norm(errvec)=0.00082897
diis-c [-1.27840891e-07 -1.82240748e-02 -3.09831381e-02  1.04920721e+00]
l = 0  e_0 = -32.7781497
l = 0  e_1 = -1.93327903
l = 0  e_2 = 0.0565872167
l = 0  e_3 = 0.366905073
l = 0  e_4 = 1.81930615
l = 0  e_5 = 7.86732752
l = 0  e_6 = 34.2929416
l = 0  e_7 = 165.055023
l = 1  e_0 = -0.851100959
l = 1  e_1 = 0.0610494055
l = 1  e_2 = 0.309373388
l = 1  e_3 = 1.40502285
l = 1  e_4 = 6.04547724
l = 1  e_5 = 29.5551277
l = 1  e_6 = 139.492259
l = 2  e_0 = 0.430076453
l = 2  e_1 = 1.4151433
l = 2  e_2 = 3.82912277
l = 2  e_3 = 11.968047
l = 2  e_4 = 51.3152407
l = 3  e_0 = 1.84477968
l = 3  e_1 = 5.22573891
l = 3  e_2 = 12.7734026
l = 0  occ = 2 + 0
l = 1  occ = 1 + 0
l = 2  occ = 0 + 0
l = 3  occ = 0 + 0
E1 = -182.53670324825737  E_coul = 54.003395428700045
cycle= 4 E= -128.533307819557  delta_E= -2.54e-08  |g|=    0  |ddm|= 0.000297
    CPU time for cycle= 4      0.02 sec, wall time      0.01 sec
diis-norm(errvec)=8.77378e-05
diis-c [-5.88331606e-10  2.89964588e-04  8.00313527e-04 -7.34429055e-02
  1.07235263e+00]
l = 0  e_0 = -32.778205
l = 0  e_1 = -1.93330521
l = 0  e_2 = 0.05658687
l = 0  e_3 = 0.366901783
l = 0  e_4 = 1.81929125
l = 0  e_5 = 7.86729205
l = 0  e_6 = 34.2928906
l = 0  e_7 = 165.054968
l = 1  e_0 = -0.851130447
l = 1  e_1 = 0.061049302
l = 1  e_2 = 0.309371344
l = 1  e_3 = 1.40500784
l = 1  e_4 = 6.04543964
l = 1  e_5 = 29.5550757
l = 1  e_6 = 139.492204
l = 2  e_0 = 0.430075533
l = 2  e_1 = 1.41513431
l = 2  e_2 = 3.82909982
l = 2  e_3 = 11.9680029
l = 2  e_4 = 51.3151862
l = 3  e_0 = 1.84477535
l = 3  e_1 = 5.22572101
l = 3  e_2 = 12.7733657
l = 0  occ = 2 + 0
l = 1  occ = 1 + 0
l = 2  occ = 0 + 0
l = 3  occ = 0 + 0
E1 = -182.5368483208079  E_coul = 54.003540500861064
cycle= 5 E= -128.533307819947  delta_E= -3.9e-10  |g|=    0  |ddm|= 3.05e-05
    CPU time for cycle= 5      0.02 sec, wall time      0.01 sec
diis-norm(errvec)=8.15751e-06
diis-c [-9.17198524e-12  6.84209278e-05  3.46898302e-05  4.89697859e-03
 -1.33023424e-01  1.12802333e+00]
l = 0  e_0 = -32.7782007
l = 0  e_1 = -1.93330231
l = 0  e_2 = 0.0565869264
l = 0  e_3 = 0.366902143
l = 0  e_4 = 1.81929253
l = 0  e_5 = 7.86729473
l = 0  e_6 = 34.2928946
l = 0  e_7 = 165.054972
l = 1  e_0 = -0.851128624
l = 1  e_1 = 0.0610493083
l = 1  e_2 = 0.309371455
l = 1  e_3 = 1.40500868
l = 1  e_4 = 6.04544208
l = 1  e_5 = 29.5550797
l = 1  e_6 = 139.492208
l = 2  e_0 = 0.430075612
l = 2  e_1 = 1.41513489
l = 2  e_2 = 3.82910129
l = 2  e_3 = 11.9680059
l = 2  e_4 = 51.3151904
l = 3  e_0 = 1.84477565
l = 3  e_1 = 5.22572212
l = 3  e_2 = 12.7733681
l = 0  occ = 2 + 0
l = 1  occ = 1 + 0
l = 2  occ = 0 + 0
l = 3  occ = 0 + 0
E1 = -182.53683769294048  E_coul = 54.00352987298998
cycle= 6 E= -128.53330781995  delta_E= -3.64e-12  |g|=    0  |ddm|= 3.08e-06
    CPU time for cycle= 6      0.02 sec, wall time      0.01 sec
diis-norm(errvec)=4.47704e-07
diis-c [-2.46196691e-14 -6.71467627e-06 -5.55336214e-06 -1.26446548e-04
  4.29044485e-03 -1.30014153e-01  1.12586242e+00]
l = 0  e_0 = -32.7782007
l = 0  e_1 = -1.93330224
l = 0  e_2 = 0.05658693
l = 0  e_3 = 0.366902162
l = 0  e_4 = 1.81929257
l = 0  e_5 = 7.86729476
l = 0  e_6 = 34.2928946
l = 0  e_7 = 165.054972
l = 1  e_0 = -0.851128659
l = 1  e_1 = 0.0610493085
l = 1  e_2 = 0.309371458
l = 1  e_3 = 1.40500869
l = 1  e_4 = 6.04544207
l = 1  e_5 = 29.5550796
l = 1  e_6 = 139.492208
l = 2  e_0 = 0.430075617
l = 2  e_1 = 1.4151349
l = 2  e_2 = 3.82910129
l = 2  e_3 = 11.9680058
l = 2  e_4 = 51.3151904
l = 3  e_0 = 1.84477566
l = 3  e_1 = 5.22572214
l = 3  e_2 = 12.7733681
l = 0  occ = 2 + 0
l = 1  occ = 1 + 0
l = 2  occ = 0 + 0
l = 3  occ = 0 + 0
E1 = -182.53683789410704  E_coul = 54.00353007415634
cycle= 7 E= -128.533307819951  delta_E= -1.99e-13  |g|=    0  |ddm|= 3.88e-07
    CPU time for cycle= 7      0.02 sec, wall time      0.01 sec
diis-norm(errvec)=2.4392e-08
Linear dependence found in DIIS error vectors.
diis-c [-6.02169655e-15 -3.09031109e-06 -2.56640042e-06 -6.03149738e-05
  2.14573101e-03 -5.90345981e-02  4.93704320e-01  5.63250519e-01]
l = 0  e_0 = -32.7782007
l = 0  e_1 = -1.93330223
l = 0  e_2 = 0.0565869301
l = 0  e_3 = 0.366902163
l = 0  e_4 = 1.81929257
l = 0  e_5 = 7.86729477
l = 0  e_6 = 34.2928946
l = 0  e_7 = 165.054972
l = 1  e_0 = -0.851128656
l = 1  e_1 = 0.0610493085
l = 1  e_2 = 0.309371459
l = 1  e_3 = 1.40500869
l = 1  e_4 = 6.04544207
l = 1  e_5 = 29.5550796
l = 1  e_6 = 139.492208
l = 2  e_0 = 0.430075617
l = 2  e_1 = 1.4151349
l = 2  e_2 = 3.82910129
l = 2  e_3 = 11.9680058
l = 2  e_4 = 51.3151904
l = 3  e_0 = 1.84477566
l = 3  e_1 = 5.22572214
l = 3  e_2 = 12.7733681
l = 0  occ = 2 + 0
l = 1  occ = 1 + 0
l = 2  occ = 0 + 0
l = 3  occ = 0 + 0
E1 = -182.53683788999246  E_coul = 54.00353007004167
cycle= 8 E= -128.533307819951  delta_E= -8.53e-14  |g|=    0  |ddm|= 6.79e-09
    CPU time for cycle= 8      0.02 sec, wall time      0.01 sec
diis-norm(errvec)=1.26361e-08
Linear dependence found in DIIS error vectors.
diis-c [-2.66394621e-17  3.91829754e-07  2.87262799e-07  7.83839920e-06
 -9.64951324e-05  8.46831206e-03 -8.76342912e-02  5.21784467e-01
  5.57469490e-01]
l = 0  e_0 = -32.7782007
l = 0  e_1 = -1.93330223
l = 0  e_2 = 0.0565869302
l = 0  e_3 = 0.366902163
l = 0  e_4 = 1.81929257
l = 0  e_5 = 7.86729477
l = 0  e_6 = 34.2928946
l = 0  e_7 = 165.054972
l = 1  e_0 = -0.851128653
l = 1  e_1 = 0.0610493085
l = 1  e_2 = 0.309371459
l = 1  e_3 = 1.40500869
l = 1  e_4 = 6.04544207
l = 1  e_5 = 29.5550797
l = 1  e_6 = 139.492208
l = 2  e_0 = 0.430075618
l = 2  e_1 = 1.4151349
l = 2  e_2 = 3.8291013
l = 2  e_3 = 11.9680058
l = 2  e_4 = 51.3151904
l = 3  e_0 = 1.84477567
l = 3  e_1 = 5.22572214
l = 3  e_2 = 12.7733681
l = 0  occ = 2 + 0
l = 1  occ = 1 + 0
l = 2  occ = 0 + 0
l = 3  occ = 0 + 0
E1 = -182.53683788533363  E_coul = 54.00353006538312
cycle= 9 E= -128.53330781995  delta_E= 2.84e-13  |g|=    0  |ddm|= 6.43e-09
    CPU time for cycle= 9      0.02 sec, wall time      0.01 sec
diis-norm(errvec)=1.32604e-09
Linear dependence found in DIIS error vectors.
diis-c [-2.30522200e-17  3.64669584e-01 -1.94571951e-07  8.52970808e-06
 -3.22760731e-06  3.94755956e-03 -4.58366062e-02  3.29627897e-01
  3.47586458e-01]
l = 0  e_0 = -32.7782007
l = 0  e_1 = -1.93330223
l = 0  e_2 = 0.0565869302
l = 0  e_3 = 0.366902163
l = 0  e_4 = 1.81929257
l = 0  e_5 = 7.86729477
l = 0  e_6 = 34.2928946
l = 0  e_7 = 165.054972
l = 1  e_0 = -0.851128653
l = 1  e_1 = 0.0610493085
l = 1  e_2 = 0.309371459
l = 1  e_3 = 1.40500869
l = 1  e_4 = 6.04544207
l = 1  e_5 = 29.5550797
l = 1  e_6 = 139.492208
l = 2  e_0 = 0.430075618
l = 2  e_1 = 1.4151349
l = 2  e_2 = 3.8291013
l = 2  e_3 = 11.9680058
l = 2  e_4 = 51.3151904
l = 3  e_0 = 1.84477567
l = 3  e_1 = 5.22572214
l = 3  e_2 = 12.7733681
l = 0  occ = 2 + 0
l = 1  occ = 1 + 0
l = 2  occ = 0 + 0
l = 3  occ = 0 + 0
E1 = -182.53683788441464  E_coul = 54.00353006446405
cycle= 10 E= -128.533307819951  delta_E= -8.53e-14  |g|=    0  |ddm|= 2.09e-10
    CPU time for cycle= 10      0.02 sec, wall time      0.01 sec
diis-norm(errvec)=8.19533e-10
Linear dependence found in DIIS error vectors.
diis-c [-9.42364284e-17  2.60400963e-01  2.60421125e-01 -3.11430550e-06
  1.64916928e-04  7.86101175e-04 -2.02925673e-02  2.45372418e-01
  2.53150157e-01]
l = 0  e_0 = -32.7782007
l = 0  e_1 = -1.93330223
l = 0  e_2 = 0.0565869302
l = 0  e_3 = 0.366902163
l = 0  e_4 = 1.81929257
l = 0  e_5 = 7.86729477
l = 0  e_6 = 34.2928946
l = 0  e_7 = 165.054972
l = 1  e_0 = -0.851128653
l = 1  e_1 = 0.0610493085
l = 1  e_2 = 0.309371459
l = 1  e_3 = 1.40500869
l = 1  e_4 = 6.04544207
l = 1  e_5 = 29.5550797
l = 1  e_6 = 139.492208
l = 2  e_0 = 0.430075618
l = 2  e_1 = 1.4151349
l = 2  e_2 = 3.8291013
l = 2  e_3 = 11.9680058
l = 2  e_4 = 51.3151904
l = 3  e_0 = 1.84477567
l = 3  e_1 = 5.22572214
l = 3  e_2 = 12.7733681
l = 0  occ = 2 + 0
l = 1  occ = 1 + 0
l = 2  occ = 0 + 0
l = 3  occ = 0 + 0
E1 = -182.53683788492384  E_coul = 54.0035300649732
cycle= 11 E= -128.533307819951  delta_E= -5.68e-14  |g|=    0  |ddm|= 6.15e-11
    CPU time for cycle= 11      0.02 sec, wall time      0.01 sec
l = 0  e_0 = -32.7782007
l = 0  e_1 = -1.93330223
l = 0  e_2 = 0.0565869302
l = 0  e_3 = 0.366902163
l = 0  e_4 = 1.81929257
l = 0  e_5 = 7.86729477
l = 0  e_6 = 34.2928946
l = 0  e_7 = 165.054972
l = 1  e_0 = -0.851128652
l = 1  e_1 = 0.0610493085
l = 1  e_2 = 0.309371459
l = 1  e_3 = 1.40500869
l = 1  e_4 = 6.04544207
l = 1  e_5 = 29.5550797
l = 1  e_6 = 139.492208
l = 2  e_0 = 0.430075618
l = 2  e_1 = 1.4151349
l = 2  e_2 = 3.8291013
l = 2  e_3 = 11.9680058
l = 2  e_4 = 51.3151904
l = 3  e_0 = 1.84477567
l = 3  e_1 = 5.22572214
l = 3  e_2 = 12.7733681
l = 0  occ = 2 + 0
l = 1  occ = 1 + 0
l = 2  occ = 0 + 0
l = 3  occ = 0 + 0
E1 = -182.53683788370464  E_coul = 54.003530063754184
Extra cycle  E= -128.53330781995  delta_E= 1.99e-13  |g|=    0  |ddm|= 6.15e-11
    CPU time for scf_cycle      0.46 sec, wall time      0.16 sec
    CPU time for SCF      0.46 sec, wall time      0.16 sec
Atomic HF for atom  Ne  converged. SCF energy = -128.53330781995

Atom Ne, E = -128.53330782
Nelec from initial guess = 9.999999999999996
E1 = -182.53683788370464  E_coul = 54.00353006375418
init E= -128.53330781995
    CPU time for initialize scf      0.62 sec, wall time      0.20 sec
HOMO (B3u) = -0.851128652510642  LUMO (Ag) = 0.0565869302125782
irrep_nelec = [4, 0, 0, 0, 0, 2, 2, 2]
Ag nocc = 2  HOMO = -1.93330222960211  LUMO = 0.0565869302125782
   mo_energy = [-3.27782007e+01 -1.93330223e+00  5.65869302e-02  3.66902163e-01
  4.30075618e-01  4.30075618e-01  1.41513490e+00  1.41513490e+00
  1.81929257e+00  3.82910130e+00  3.82910130e+00  7.86729477e+00
  1.19680058e+01  1.19680058e+01  3.42928946e+01  5.13151904e+01
  5.13151904e+01  1.65054972e+02]
B1g nocc = 0
   mo_energy = [ 0.43007562  1.4151349   3.8291013  11.96800584 51.3151904 ]
B2g nocc = 0
   mo_energy = [ 0.43007562  1.4151349   3.8291013  11.96800584 51.3151904 ]
B3g nocc = 0
   mo_energy = [ 0.43007562  1.4151349   3.8291013  11.96800584 51.3151904 ]
Au nocc = 0
   mo_energy = [ 1.84477567  5.22572214 12.77336811]
B1u nocc = 1  HOMO = -0.851128652510649  LUMO = 0.0610493084902001
   mo_energy = [-8.51128653e-01  6.10493085e-02  3.09371459e-01  1.40500869e+00
  1.84477567e+00  1.84477567e+00  5.22572214e+00  5.22572214e+00
  6.04544207e+00  1.27733681e+01  1.27733681e+01  2.95550797e+01
  1.39492208e+02]
B2u nocc = 1  HOMO = -0.851128652510648  LUMO = 0.0610493084902013
   mo_energy = [-8.51128653e-01  6.10493085e-02  3.09371459e-01  1.40500869e+00
  1.84477567e+00  1.84477567e+00  5.22572214e+00  5.22572214e+00
  6.04544207e+00  1.27733681e+01  1.27733681e+01  2.95550797e+01
  1.39492208e+02]
B3u nocc = 1  HOMO = -0.851128652510642  LUMO = 0.061049308490201
   mo_energy = [-8.51128653e-01  6.10493085e-02  3.09371459e-01  1.40500869e+00
  1.84477567e+00  1.84477567e+00  5.22572214e+00  5.22572214e+00
  6.04544207e+00  1.27733681e+01  1.27733681e+01  2.95550797e+01
  1.39492208e+02]
E1 = -182.53683788455686  E_coul = 54.0035300646063
cycle= 1 E= -128.533307819951  delta_E= -8.53e-14  |g|= 1.13e-10  |ddm|= 1.09e-10
    CPU time for cycle= 1      0.05 sec, wall time      0.01 sec
diis-norm(errvec)=1.59898e-10
diis-c [-2.55673482e-20  1.00000000e+00]
HOMO (B2u) = -0.85112865244858  LUMO (Ag) = 0.0565869302137685
irrep_nelec = [4, 0, 0, 0, 0, 2, 2, 2]
Ag nocc = 2  HOMO = -1.93330222953647  LUMO = 0.0565869302137685
   mo_energy = [-3.27782007e+01 -1.93330223e+00  5.65869302e-02  3.66902163e-01
  4.30075618e-01  4.30075618e-01  1.41513490e+00  1.41513490e+00
  1.81929257e+00  3.82910130e+00  3.82910130e+00  7.86729477e+00
  1.19680058e+01  1.19680058e+01  3.42928946e+01  5.13151904e+01
  5.13151904e+01  1.65054972e+02]
B1g nocc = 0
   mo_energy = [ 0.43007562  1.4151349   3.8291013  11.96800584 51.3151904 ]
B2g nocc = 0
   mo_energy = [ 0.43007562  1.4151349   3.8291013  11.96800584 51.3151904 ]
B3g nocc = 0
   mo_energy = [ 0.43007562  1.4151349   3.8291013  11.96800584 51.3151904 ]
Au nocc = 0
   mo_energy = [ 1.84477567  5.22572214 12.77336811]
B1u nocc = 1  HOMO = -0.85112865244859  LUMO = 0.0610493084903905
   mo_energy = [-8.51128652e-01  6.10493085e-02  3.09371459e-01  1.40500869e+00
  1.84477567e+00  1.84477567e+00  5.22572214e+00  5.22572214e+00
  6.04544207e+00  1.27733681e+01  1.27733681e+01  2.95550797e+01
  1.39492208e+02]
B2u nocc = 1  HOMO = -0.85112865244858  LUMO = 0.0610493084903911
   mo_energy = [-8.51128652e-01  6.10493085e-02  3.09371459e-01  1.40500869e+00
  1.84477567e+00  1.84477567e+00  5.22572214e+00  5.22572214e+00
  6.04544207e+00  1.27733681e+01  1.27733681e+01  2.95550797e+01
  1.39492208e+02]
B3u nocc = 1  HOMO = -0.851128652448586  LUMO = 0.0610493084903913
   mo_energy = [-8.51128652e-01  6.10493085e-02  3.09371459e-01  1.40500869e+00
  1.84477567e+00  1.84477567e+00  5.22572214e+00  5.22572214e+00
  6.04544207e+00  1.27733681e+01  1.27733681e+01  2.95550797e+01
  1.39492208e+02]
E1 = -182.53683788415958  E_coul = 54.00353006420904
cycle= 2 E= -128.533307819951  delta_E=    0  |g|= 5.49e-11  |ddm|= 5.85e-11
    CPU time for cycle= 2      0.04 sec, wall time      0.01 sec
diis-norm(errvec)=7.75999e-11
Linear dependence found in DIIS error vectors.
diis-c [-5.55111512e-16  5.00000000e-01  5.00000000e-01]
HOMO (B2u) = -0.851128652462481  LUMO (Ag) = 0.0565869302136704
irrep_nelec = [4, 0, 0, 0, 0, 2, 2, 2]
Ag nocc = 2  HOMO = -1.93330222955105  LUMO = 0.0565869302136704
   mo_energy = [-3.27782007e+01 -1.93330223e+00  5.65869302e-02  3.66902163e-01
  4.30075618e-01  4.30075618e-01  1.41513490e+00  1.41513490e+00
  1.81929257e+00  3.82910130e+00  3.82910130e+00  7.86729477e+00
  1.19680058e+01  1.19680058e+01  3.42928946e+01  5.13151904e+01
  5.13151904e+01  1.65054972e+02]
B1g nocc = 0
   mo_energy = [ 0.43007562  1.4151349   3.8291013  11.96800584 51.3151904 ]
B2g nocc = 0
   mo_energy = [ 0.43007562  1.4151349   3.8291013  11.96800584 51.3151904 ]
B3g nocc = 0
   mo_energy = [ 0.43007562  1.4151349   3.8291013  11.96800584 51.3151904 ]
Au nocc = 0
   mo_energy = [ 1.84477567  5.22572214 12.77336811]
B1u nocc = 1  HOMO = -0.851128652462489  LUMO = 0.0610493084903606
   mo_energy = [-8.51128652e-01  6.10493085e-02  3.09371459e-01  1.40500869e+00
  1.84477567e+00  1.84477567e+00  5.22572214e+00  5.22572214e+00
  6.04544207e+00  1.27733681e+01  1.27733681e+01  2.95550797e+01
  1.39492208e+02]
B2u nocc = 1  HOMO = -0.851128652462481  LUMO = 0.0610493084903609
   mo_energy = [-8.51128652e-01  6.10493085e-02  3.09371459e-01  1.40500869e+00
  1.84477567e+00  1.84477567e+00  5.22572214e+00  5.22572214e+00
  6.04544207e+00  1.27733681e+01  1.27733681e+01  2.95550797e+01
  1.39492208e+02]
B3u nocc = 1  HOMO = -0.851128652462486  LUMO = 0.0610493084903605
   mo_energy = [-8.51128652e-01  6.10493085e-02  3.09371459e-01  1.40500869e+00
  1.84477567e+00  1.84477567e+00  5.22572214e+00  5.22572214e+00
  6.04544207e+00  1.27733681e+01  1.27733681e+01  2.95550797e+01
  1.39492208e+02]
E1 = -182.53683788426773  E_coul = 54.00353006431716
cycle= 3 E= -128.533307819951  delta_E=    0  |g|= 1.3e-11  |ddm|= 1.51e-11
    CPU time for cycle= 3      0.04 sec, wall time      0.01 sec
diis-norm(errvec)=1.83968e-11
Linear dependence found in DIIS error vectors.
diis-c [-3.88578059e-16  3.33333333e-01  3.33333333e-01  3.33333333e-01]
HOMO (B1u) = -0.85112865246455  LUMO (Ag) = 0.0565869302136944
irrep_nelec = [4, 0, 0, 0, 0, 2, 2, 2]
Ag nocc = 2  HOMO = -1.93330222955319  LUMO = 0.0565869302136944
   mo_energy = [-3.27782007e+01 -1.93330223e+00  5.65869302e-02  3.66902163e-01
  4.30075618e-01  4.30075618e-01  1.41513490e+00  1.41513490e+00
  1.81929257e+00  3.82910130e+00  3.82910130e+00  7.86729477e+00
  1.19680058e+01  1.19680058e+01  3.42928946e+01  5.13151904e+01
  5.13151904e+01  1.65054972e+02]
B1g nocc = 0
   mo_energy = [ 0.43007562  1.4151349   3.8291013  11.96800584 51.3151904 ]
B2g nocc = 0
   mo_energy = [ 0.43007562  1.4151349   3.8291013  11.96800584 51.3151904 ]
B3g nocc = 0
   mo_energy = [ 0.43007562  1.4151349   3.8291013  11.96800584 51.3151904 ]
Au nocc = 0
   mo_energy = [ 1.84477567  5.22572214 12.77336811]
B1u nocc = 1  HOMO = -0.85112865246455  LUMO = 0.0610493084903568
   mo_energy = [-8.51128652e-01  6.10493085e-02  3.09371459e-01  1.40500869e+00
  1.84477567e+00  1.84477567e+00  5.22572214e+00  5.22572214e+00
  6.04544207e+00  1.27733681e+01  1.27733681e+01  2.95550797e+01
  1.39492208e+02]
B2u nocc = 1  HOMO = -0.851128652464552  LUMO = 0.0610493084903575
   mo_energy = [-8.51128652e-01  6.10493085e-02  3.09371459e-01  1.40500869e+00
  1.84477567e+00  1.84477567e+00  5.22572214e+00  5.22572214e+00
  6.04544207e+00  1.27733681e+01  1.27733681e+01  2.95550797e+01
  1.39492208e+02]
B3u nocc = 1  HOMO = -0.851128652464555  LUMO = 0.0610493084903563
   mo_energy = [-8.51128652e-01  6.10493085e-02  3.09371459e-01  1.40500869e+00
  1.84477567e+00  1.84477567e+00  5.22572214e+00  5.22572214e+00
  6.04544207e+00  1.27733681e+01  1.27733681e+01  2.95550797e+01
  1.39492208e+02]
E1 = -182.53683788428572  E_coul = 54.003530064334825
cycle= 4 E= -128.533307819951  delta_E= -3.41e-13  |g|= 6.43e-12  |ddm|= 2.42e-12
    CPU time for cycle= 4      0.04 sec, wall time      0.01 sec
diis-norm(errvec)=9.07544e-12
Linear dependence found in DIIS error vectors.
diis-c [-4.4408921e-16  2.5000000e-01  2.5000000e-01  2.5000000e-01
  2.5000000e-01]
HOMO (B2u) = -0.85112865246527  LUMO (Ag) = 0.0565869302136857
irrep_nelec = [4, 0, 0, 0, 0, 2, 2, 2]
Ag nocc = 2  HOMO = -1.93330222955393  LUMO = 0.0565869302136857
   mo_energy = [-3.27782007e+01 -1.93330223e+00  5.65869302e-02  3.66902163e-01
  4.30075618e-01  4.30075618e-01  1.41513490e+00  1.41513490e+00
  1.81929257e+00  3.82910130e+00  3.82910130e+00  7.86729477e+00
  1.19680058e+01  1.19680058e+01  3.42928946e+01  5.13151904e+01
  5.13151904e+01  1.65054972e+02]
B1g nocc = 0
   mo_energy = [ 0.43007562  1.4151349   3.8291013  11.96800584 51.3151904 ]
B2g nocc = 0
   mo_energy = [ 0.43007562  1.4151349   3.8291013  11.96800584 51.3151904 ]
B3g nocc = 0
   mo_energy = [ 0.43007562  1.4151349   3.8291013  11.96800584 51.3151904 ]
Au nocc = 0
   mo_energy = [ 1.84477567  5.22572214 12.77336811]
B1u nocc = 1  HOMO = -0.851128652465271  LUMO = 0.061049308490357
   mo_energy = [-8.51128652e-01  6.10493085e-02  3.09371459e-01  1.40500869e+00
  1.84477567e+00  1.84477567e+00  5.22572214e+00  5.22572214e+00
  6.04544207e+00  1.27733681e+01  1.27733681e+01  2.95550797e+01
  1.39492208e+02]
B2u nocc = 1  HOMO = -0.85112865246527  LUMO = 0.0610493084903576
   mo_energy = [-8.51128652e-01  6.10493085e-02  3.09371459e-01  1.40500869e+00
  1.84477567e+00  1.84477567e+00  5.22572214e+00  5.22572214e+00
  6.04544207e+00  1.27733681e+01  1.27733681e+01  2.95550797e+01
  1.39492208e+02]
B3u nocc = 1  HOMO = -0.851128652465275  LUMO = 0.0610493084903564
   mo_energy = [-8.51128652e-01  6.10493085e-02  3.09371459e-01  1.40500869e+00
  1.84477567e+00  1.84477567e+00  5.22572214e+00  5.22572214e+00
  6.04544207e+00  1.27733681e+01  1.27733681e+01  2.95550797e+01
  1.39492208e+02]
E1 = -182.53683788429203  E_coul = 54.00353006434134
cycle= 5 E= -128.533307819951  delta_E= 1.99e-13  |g|= 4.02e-12  |ddm|= 8.93e-13
    CPU time for cycle= 5      0.04 sec, wall time      0.01 sec
diis-norm(errvec)=5.66679e-12
Linear dependence found in DIIS error vectors.
diis-c [-3.05311332e-16  2.00000000e-01  2.00000000e-01  2.00000000e-01
  2.00000000e-01  2.00000000e-01]
HOMO (B2u) = -0.851128652465604  LUMO (Ag) = 0.0565869302137116
irrep_nelec = [4, 0, 0, 0, 0, 2, 2, 2]
Ag nocc = 2  HOMO = -1.93330222955427  LUMO = 0.0565869302137116
   mo_energy = [-3.27782007e+01 -1.93330223e+00  5.65869302e-02  3.66902163e-01
  4.30075618e-01  4.30075618e-01  1.41513490e+00  1.41513490e+00
  1.81929257e+00  3.82910130e+00  3.82910130e+00  7.86729477e+00
  1.19680058e+01  1.19680058e+01  3.42928946e+01  5.13151904e+01
  5.13151904e+01  1.65054972e+02]
B1g nocc = 0
   mo_energy = [ 0.43007562  1.4151349   3.8291013  11.96800584 51.3151904 ]
B2g nocc = 0
   mo_energy = [ 0.43007562  1.4151349   3.8291013  11.96800584 51.3151904 ]
B3g nocc = 0
   mo_energy = [ 0.43007562  1.4151349   3.8291013  11.96800584 51.3151904 ]
Au nocc = 0
   mo_energy = [ 1.84477567  5.22572214 12.77336811]
B1u nocc = 1  HOMO = -0.851128652465611  LUMO = 0.0610493084903564
   mo_energy = [-8.51128652e-01  6.10493085e-02  3.09371459e-01  1.40500869e+00
  1.84477567e+00  1.84477567e+00  5.22572214e+00  5.22572214e+00
  6.04544207e+00  1.27733681e+01  1.27733681e+01  2.95550797e+01
  1.39492208e+02]
B2u nocc = 1  HOMO = -0.851128652465604  LUMO = 0.0610493084903567
   mo_energy = [-8.51128652e-01  6.10493085e-02  3.09371459e-01  1.40500869e+00
  1.84477567e+00  1.84477567e+00  5.22572214e+00  5.22572214e+00
  6.04544207e+00  1.27733681e+01  1.27733681e+01  2.95550797e+01
  1.39492208e+02]
B3u nocc = 1  HOMO = -0.851128652465609  LUMO = 0.0610493084903563
   mo_energy = [-8.51128652e-01  6.10493085e-02  3.09371459e-01  1.40500869e+00
  1.84477567e+00  1.84477567e+00  5.22572214e+00  5.22572214e+00
  6.04544207e+00  1.27733681e+01  1.27733681e+01  2.95550797e+01
  1.39492208e+02]
E1 = -182.53683788429535  E_coul = 54.0035300643446
cycle= 6 E= -128.533307819951  delta_E= -5.68e-14  |g|= 2.89e-12  |ddm|= 4.53e-13
    CPU time for cycle= 6      0.04 sec, wall time      0.01 sec
diis-norm(errvec)=4.07396e-12
Linear dependence found in DIIS error vectors.
diis-c [-3.60822483e-16  1.66666667e-01  1.66666667e-01  1.66666667e-01
  1.66666667e-01  1.66666667e-01  1.66666667e-01]
HOMO (B1u) = -0.851128652465789  LUMO (Ag) = 0.056586930213691
irrep_nelec = [4, 0, 0, 0, 0, 2, 2, 2]
Ag nocc = 2  HOMO = -1.93330222955447  LUMO = 0.056586930213691
   mo_energy = [-3.27782007e+01 -1.93330223e+00  5.65869302e-02  3.66902163e-01
  4.30075618e-01  4.30075618e-01  1.41513490e+00  1.41513490e+00
  1.81929257e+00  3.82910130e+00  3.82910130e+00  7.86729477e+00
  1.19680058e+01  1.19680058e+01  3.42928946e+01  5.13151904e+01
  5.13151904e+01  1.65054972e+02]
B1g nocc = 0
   mo_energy = [ 0.43007562  1.4151349   3.8291013  11.96800584 51.3151904 ]
B2g nocc = 0
   mo_energy = [ 0.43007562  1.4151349   3.8291013  11.96800584 51.3151904 ]
B3g nocc = 0
   mo_energy = [ 0.43007562  1.4151349   3.8291013  11.96800584 51.3151904 ]
Au nocc = 0
   mo_energy = [ 1.84477567  5.22572214 12.77336811]
B1u nocc = 1  HOMO = -0.851128652465789  LUMO = 0.0610493084903566
   mo_energy = [-8.51128652e-01  6.10493085e-02  3.09371459e-01  1.40500869e+00
  1.84477567e+00  1.84477567e+00  5.22572214e+00  5.22572214e+00
  6.04544207e+00  1.27733681e+01  1.27733681e+01  2.95550797e+01
  1.39492208e+02]
B2u nocc = 1  HOMO = -0.851128652465793  LUMO = 0.0610493084903562
   mo_energy = [-8.51128652e-01  6.10493085e-02  3.09371459e-01  1.40500869e+00
  1.84477567e+00  1.84477567e+00  5.22572214e+00  5.22572214e+00
  6.04544207e+00  1.27733681e+01  1.27733681e+01  2.95550797e+01
  1.39492208e+02]
B3u nocc = 1  HOMO = -0.851128652465798  LUMO = 0.0610493084903567
   mo_energy = [-8.51128652e-01  6.10493085e-02  3.09371459e-01  1.40500869e+00
  1.84477567e+00  1.84477567e+00  5.22572214e+00  5.22572214e+00
  6.04544207e+00  1.27733681e+01  1.27733681e+01  2.95550797e+01
  1.39492208e+02]
E1 = -182.5368378842974  E_coul = 54.00353006434662
cycle= 7 E= -128.533307819951  delta_E= -2.84e-14  |g|= 2.17e-12  |ddm|= 2.75e-13
    CPU time for cycle= 7      0.04 sec, wall time      0.01 sec
diis-norm(errvec)=3.08139e-12
Linear dependence found in DIIS error vectors.
diis-c [-2.82609890e-16  1.42857143e-01  1.42857143e-01  1.42857143e-01
  1.42857143e-01  1.42857143e-01  1.42857143e-01  1.42857143e-01]
HOMO (B1u) = -0.851128652465904  LUMO (Ag) = 0.0565869302137123
irrep_nelec = [4, 0, 0, 0, 0, 2, 2, 2]
Ag nocc = 2  HOMO = -1.93330222955458  LUMO = 0.0565869302137123
   mo_energy = [-3.27782007e+01 -1.93330223e+00  5.65869302e-02  3.66902163e-01
  4.30075618e-01  4.30075618e-01  1.41513490e+00  1.41513490e+00
  1.81929257e+00  3.82910130e+00  3.82910130e+00  7.86729477e+00
  1.19680058e+01  1.19680058e+01  3.42928946e+01  5.13151904e+01
  5.13151904e+01  1.65054972e+02]
B1g nocc = 0
   mo_energy = [ 0.43007562  1.4151349   3.8291013  11.96800584 51.3151904 ]
B2g nocc = 0
   mo_energy = [ 0.43007562  1.4151349   3.8291013  11.96800584 51.3151904 ]
B3g nocc = 0
   mo_energy = [ 0.43007562  1.4151349   3.8291013  11.96800584 51.3151904 ]
Au nocc = 0
   mo_energy = [ 1.84477567  5.22572214 12.77336811]
B1u nocc = 1  HOMO = -0.851128652465904  LUMO = 0.0610493084903565
   mo_energy = [-8.51128652e-01  6.10493085e-02  3.09371459e-01  1.40500869e+00
  1.84477567e+00  1.84477567e+00  5.22572214e+00  5.22572214e+00
  6.04544207e+00  1.27733681e+01  1.27733681e+01  2.95550797e+01
  1.39492208e+02]
B2u nocc = 1  HOMO = -0.851128652465909  LUMO = 0.0610493084903563
   mo_energy = [-8.51128652e-01  6.10493085e-02  3.09371459e-01  1.40500869e+00
  1.84477567e+00  1.84477567e+00  5.22572214e+00  5.22572214e+00
  6.04544207e+00  1.27733681e+01  1.27733681e+01  2.95550797e+01
  1.39492208e+02]
B3u nocc = 1  HOMO = -0.851128652465909  LUMO = 0.0610493084903564
   mo_energy = [-8.51128652e-01  6.10493085e-02  3.09371459e-01  1.40500869e+00
  1.84477567e+00  1.84477567e+00  5.22572214e+00  5.22572214e+00
  6.04544207e+00  1.27733681e+01  1.27733681e+01  2.95550797e+01
  1.39492208e+02]
E1 = -182.53683788429856  E_coul = 54.003530064347984
cycle= 8 E= -128.533307819951  delta_E= 1.99e-13  |g|= 1.72e-12  |ddm|= 1.73e-13
    CPU time for cycle= 8      0.04 sec, wall time      0.01 sec
diis-norm(errvec)=2.43286e-12
Linear dependence found in DIIS error vectors.
diis-c [-2.89052492e-16  1.25000000e-01  1.25000000e-01  1.25000000e-01
  1.25000000e-01  1.25000000e-01  1.25000000e-01  1.25000000e-01
  1.25000000e-01]
HOMO (B1u) = -0.851128652465976  LUMO (Ag) = 0.0565869302136928
irrep_nelec = [4, 0, 0, 0, 0, 2, 2, 2]
Ag nocc = 2  HOMO = -1.93330222955464  LUMO = 0.0565869302136928
   mo_energy = [-3.27782007e+01 -1.93330223e+00  5.65869302e-02  3.66902163e-01
  4.30075618e-01  4.30075618e-01  1.41513490e+00  1.41513490e+00
  1.81929257e+00  3.82910130e+00  3.82910130e+00  7.86729477e+00
  1.19680058e+01  1.19680058e+01  3.42928946e+01  5.13151904e+01
  5.13151904e+01  1.65054972e+02]
B1g nocc = 0
   mo_energy = [ 0.43007562  1.4151349   3.8291013  11.96800584 51.3151904 ]
B2g nocc = 0
   mo_energy = [ 0.43007562  1.4151349   3.8291013  11.96800584 51.3151904 ]
B3g nocc = 0
   mo_energy = [ 0.43007562  1.4151349   3.8291013  11.96800584 51.3151904 ]
Au nocc = 0
   mo_energy = [ 1.84477567  5.22572214 12.77336811]
B1u nocc = 1  HOMO = -0.851128652465976  LUMO = 0.0610493084903569
   mo_energy = [-8.51128652e-01  6.10493085e-02  3.09371459e-01  1.40500869e+00
  1.84477567e+00  1.84477567e+00  5.22572214e+00  5.22572214e+00
  6.04544207e+00  1.27733681e+01  1.27733681e+01  2.95550797e+01
  1.39492208e+02]
B2u nocc = 1  HOMO = -0.851128652465978  LUMO = 0.0610493084903572
   mo_energy = [-8.51128652e-01  6.10493085e-02  3.09371459e-01  1.40500869e+00
  1.84477567e+00  1.84477567e+00  5.22572214e+00  5.22572214e+00
  6.04544207e+00  1.27733681e+01  1.27733681e+01  2.95550797e+01
  1.39492208e+02]
B3u nocc = 1  HOMO = -0.851128652465978  LUMO = 0.0610493084903569
   mo_energy = [-8.51128652e-01  6.10493085e-02  3.09371459e-01  1.40500869e+00
  1.84477567e+00  1.84477567e+00  5.22572214e+00  5.22572214e+00
  6.04544207e+00  1.27733681e+01  1.27733681e+01  2.95550797e+01
  1.39492208e+02]
E1 = -182.53683788429936  E_coul = 54.00353006434881
cycle= 9 E= -128.533307819951  delta_E= 2.84e-14  |g|= 1.41e-12  |ddm|= 1.29e-13
    CPU time for cycle= 9      0.04 sec, wall time      0.01 sec
diis-norm(errvec)=1.9837e-12
Linear dependence found in DIIS error vectors.
diis-c [-2.89052492e-16  1.25000000e-01  1.25000000e-01  1.25000000e-01
  1.25000000e-01  1.25000000e-01  1.25000000e-01  1.25000000e-01
  1.25000000e-01]
HOMO (B3u) = -0.8511286524682  LUMO (Ag) = 0.0565869302137033
irrep_nelec = [4, 0, 0, 0, 0, 2, 2, 2]
Ag nocc = 2  HOMO = -1.93330222955697  LUMO = 0.0565869302137033
   mo_energy = [-3.27782007e+01 -1.93330223e+00  5.65869302e-02  3.66902163e-01
  4.30075618e-01  4.30075618e-01  1.41513490e+00  1.41513490e+00
  1.81929257e+00  3.82910130e+00  3.82910130e+00  7.86729477e+00
  1.19680058e+01  1.19680058e+01  3.42928946e+01  5.13151904e+01
  5.13151904e+01  1.65054972e+02]
B1g nocc = 0
   mo_energy = [ 0.43007562  1.4151349   3.8291013  11.96800584 51.3151904 ]
B2g nocc = 0
   mo_energy = [ 0.43007562  1.4151349   3.8291013  11.96800584 51.3151904 ]
B3g nocc = 0
   mo_energy = [ 0.43007562  1.4151349   3.8291013  11.96800584 51.3151904 ]
Au nocc = 0
   mo_energy = [ 1.84477567  5.22572214 12.77336811]
B1u nocc = 1  HOMO = -0.851128652468201  LUMO = 0.0610493084903518
   mo_energy = [-8.51128652e-01  6.10493085e-02  3.09371459e-01  1.40500869e+00
  1.84477567e+00  1.84477567e+00  5.22572214e+00  5.22572214e+00
  6.04544207e+00  1.27733681e+01  1.27733681e+01  2.95550797e+01
  1.39492208e+02]
B2u nocc = 1  HOMO = -0.851128652468205  LUMO = 0.0610493084903524
   mo_energy = [-8.51128652e-01  6.10493085e-02  3.09371459e-01  1.40500869e+00
  1.84477567e+00  1.84477567e+00  5.22572214e+00  5.22572214e+00
  6.04544207e+00  1.27733681e+01  1.27733681e+01  2.95550797e+01
  1.39492208e+02]
B3u nocc = 1  HOMO = -0.8511286524682  LUMO = 0.061049308490352
   mo_energy = [-8.51128652e-01  6.10493085e-02  3.09371459e-01  1.40500869e+00
  1.84477567e+00  1.84477567e+00  5.22572214e+00  5.22572214e+00
  6.04544207e+00  1.27733681e+01  1.27733681e+01  2.95550797e+01
  1.39492208e+02]
E1 = -182.53683788431758  E_coul = 54.00353006436691
cycle= 10 E= -128.533307819951  delta_E= -1.14e-13  |g|= 5.78e-12  |ddm|= 2.5e-12
    CPU time for cycle= 10      0.04 sec, wall time      0.01 sec
diis-norm(errvec)=8.16218e-12
Linear dependence found in DIIS error vectors.
diis-c [-2.89052492e-16  1.25000000e-01  1.25000000e-01  1.25000000e-01
  1.25000000e-01  1.25000000e-01  1.25000000e-01  1.25000000e-01
  1.25000000e-01]
HOMO (B1u) = -0.851128652466794  LUMO (Ag) = 0.0565869302137044
irrep_nelec = [4, 0, 0, 0, 0, 2, 2, 2]
Ag nocc = 2  HOMO = -1.93330222955547  LUMO = 0.0565869302137044
   mo_energy = [-3.27782007e+01 -1.93330223e+00  5.65869302e-02  3.66902163e-01
  4.30075618e-01  4.30075618e-01  1.41513490e+00  1.41513490e+00
  1.81929257e+00  3.82910130e+00  3.82910130e+00  7.86729477e+00
  1.19680058e+01  1.19680058e+01  3.42928946e+01  5.13151904e+01
  5.13151904e+01  1.65054972e+02]
B1g nocc = 0
   mo_energy = [ 0.43007562  1.4151349   3.8291013  11.96800584 51.3151904 ]
B2g nocc = 0
   mo_energy = [ 0.43007562  1.4151349   3.8291013  11.96800584 51.3151904 ]
B3g nocc = 0
   mo_energy = [ 0.43007562  1.4151349   3.8291013  11.96800584 51.3151904 ]
Au nocc = 0
   mo_energy = [ 1.84477567  5.22572214 12.77336811]
B1u nocc = 1  HOMO = -0.851128652466794  LUMO = 0.0610493084903563
   mo_energy = [-8.51128652e-01  6.10493085e-02  3.09371459e-01  1.40500869e+00
  1.84477567e+00  1.84477567e+00  5.22572214e+00  5.22572214e+00
  6.04544207e+00  1.27733681e+01  1.27733681e+01  2.95550797e+01
  1.39492208e+02]
B2u nocc = 1  HOMO = -0.8511286524668  LUMO = 0.0610493084903562
   mo_energy = [-8.51128652e-01  6.10493085e-02  3.09371459e-01  1.40500869e+00
  1.84477567e+00  1.84477567e+00  5.22572214e+00  5.22572214e+00
  6.04544207e+00  1.27733681e+01  1.27733681e+01  2.95550797e+01
  1.39492208e+02]
B3u nocc = 1  HOMO = -0.851128652466797  LUMO = 0.0610493084903559
   mo_energy = [-8.51128652e-01  6.10493085e-02  3.09371459e-01  1.40500869e+00
  1.84477567e+00  1.84477567e+00  5.22572214e+00  5.22572214e+00
  6.04544207e+00  1.27733681e+01  1.27733681e+01  2.95550797e+01
  1.39492208e+02]
E1 = -182.53683788430763  E_coul = 54.003530064357
cycle= 11 E= -128.533307819951  delta_E= 2.84e-14  |g|= 1.79e-12  |ddm|= 1.41e-12
    CPU time for cycle= 11      0.04 sec, wall time      0.01 sec
diis-norm(errvec)=2.54784e-12
Linear dependence found in DIIS error vectors.
diis-c [-2.89052492e-16  1.25000000e-01  1.25000000e-01  1.25000000e-01
  1.25000000e-01  1.25000000e-01  1.25000000e-01  1.25000000e-01
  1.25000000e-01]
HOMO (B1u) = -0.851128652466437  LUMO (Ag) = 0.056586930213712
irrep_nelec = [4, 0, 0, 0, 0, 2, 2, 2]
Ag nocc = 2  HOMO = -1.93330222955509  LUMO = 0.056586930213712
   mo_energy = [-3.27782007e+01 -1.93330223e+00  5.65869302e-02  3.66902163e-01
  4.30075618e-01  4.30075618e-01  1.41513490e+00  1.41513490e+00
  1.81929257e+00  3.82910130e+00  3.82910130e+00  7.86729477e+00
  1.19680058e+01  1.19680058e+01  3.42928946e+01  5.13151904e+01
  5.13151904e+01  1.65054972e+02]
B1g nocc = 0
   mo_energy = [ 0.43007562  1.4151349   3.8291013  11.96800584 51.3151904 ]
B2g nocc = 0
   mo_energy = [ 0.43007562  1.4151349   3.8291013  11.96800584 51.3151904 ]
B3g nocc = 0
   mo_energy = [ 0.43007562  1.4151349   3.8291013  11.96800584 51.3151904 ]
Au nocc = 0
   mo_energy = [ 1.84477567  5.22572214 12.77336811]
B1u nocc = 1  HOMO = -0.851128652466437  LUMO = 0.0610493084903571
   mo_energy = [-8.51128652e-01  6.10493085e-02  3.09371459e-01  1.40500869e+00
  1.84477567e+00  1.84477567e+00  5.22572214e+00  5.22572214e+00
  6.04544207e+00  1.27733681e+01  1.27733681e+01  2.95550797e+01
  1.39492208e+02]
B2u nocc = 1  HOMO = -0.851128652466439  LUMO = 0.0610493084903573
   mo_energy = [-8.51128652e-01  6.10493085e-02  3.09371459e-01  1.40500869e+00
  1.84477567e+00  1.84477567e+00  5.22572214e+00  5.22572214e+00
  6.04544207e+00  1.27733681e+01  1.27733681e+01  2.95550797e+01
  1.39492208e+02]
B3u nocc = 1  HOMO = -0.851128652466441  LUMO = 0.0610493084903569
   mo_energy = [-8.51128652e-01  6.10493085e-02  3.09371459e-01  1.40500869e+00
  1.84477567e+00  1.84477567e+00  5.22572214e+00  5.22572214e+00
  6.04544207e+00  1.27733681e+01  1.27733681e+01  2.95550797e+01
  1.39492208e+02]
E1 = -182.5368378843053  E_coul = 54.0035300643546
cycle= 12 E= -128.533307819951  delta_E= -5.68e-14  |g|= 8.27e-13  |ddm|= 3.73e-13
    CPU time for cycle= 12      0.04 sec, wall time      0.01 sec
diis-norm(errvec)=1.16435e-12
Linear dependence found in DIIS error vectors.
diis-c [-2.89052492e-16  1.25000000e-01  1.25000000e-01  1.25000000e-01
  1.25000000e-01  1.25000000e-01  1.25000000e-01  1.25000000e-01
  1.25000000e-01]
HOMO (B1u) = -0.851128652466257  LUMO (Ag) = 0.0565869302137239
irrep_nelec = [4, 0, 0, 0, 0, 2, 2, 2]
Ag nocc = 2  HOMO = -1.9333022295549  LUMO = 0.0565869302137239
   mo_energy = [-3.27782007e+01 -1.93330223e+00  5.65869302e-02  3.66902163e-01
  4.30075618e-01  4.30075618e-01  1.41513490e+00  1.41513490e+00
  1.81929257e+00  3.82910130e+00  3.82910130e+00  7.86729477e+00
  1.19680058e+01  1.19680058e+01  3.42928946e+01  5.13151904e+01
  5.13151904e+01  1.65054972e+02]
B1g nocc = 0
   mo_energy = [ 0.43007562  1.4151349   3.8291013  11.96800584 51.3151904 ]
B2g nocc = 0
   mo_energy = [ 0.43007562  1.4151349   3.8291013  11.96800584 51.3151904 ]
B3g nocc = 0
   mo_energy = [ 0.43007562  1.4151349   3.8291013  11.96800584 51.3151904 ]
Au nocc = 0
   mo_energy = [ 1.84477567  5.22572214 12.77336811]
B1u nocc = 1  HOMO = -0.851128652466257  LUMO = 0.0610493084903574
   mo_energy = [-8.51128652e-01  6.10493085e-02  3.09371459e-01  1.40500869e+00
  1.84477567e+00  1.84477567e+00  5.22572214e+00  5.22572214e+00
  6.04544207e+00  1.27733681e+01  1.27733681e+01  2.95550797e+01
  1.39492208e+02]
B2u nocc = 1  HOMO = -0.851128652466263  LUMO = 0.0610493084903576
   mo_energy = [-8.51128652e-01  6.10493085e-02  3.09371459e-01  1.40500869e+00
  1.84477567e+00  1.84477567e+00  5.22572214e+00  5.22572214e+00
  6.04544207e+00  1.27733681e+01  1.27733681e+01  2.95550797e+01
  1.39492208e+02]
B3u nocc = 1  HOMO = -0.851128652466263  LUMO = 0.0610493084903578
   mo_energy = [-8.51128652e-01  6.10493085e-02  3.09371459e-01  1.40500869e+00
  1.84477567e+00  1.84477567e+00  5.22572214e+00  5.22572214e+00
  6.04544207e+00  1.27733681e+01  1.27733681e+01  2.95550797e+01
  1.39492208e+02]
E1 = -182.53683788430413  E_coul = 54.003530064353406
cycle= 13 E= -128.533307819951  delta_E= -2.84e-14  |g|= 3.78e-13  |ddm|= 2e-13
    CPU time for cycle= 13      0.04 sec, wall time      0.01 sec
diis-norm(errvec)=5.35092e-13
Linear dependence found in DIIS error vectors.
diis-c [-2.89052492e-16  1.25000000e-01  1.25000000e-01  1.25000000e-01
  1.25000000e-01  1.25000000e-01  1.25000000e-01  1.25000000e-01
  1.25000000e-01]
HOMO (B1u) = -0.851128652466146  LUMO (Ag) = 0.0565869302137186
irrep_nelec = [4, 0, 0, 0, 0, 2, 2, 2]
Ag nocc = 2  HOMO = -1.93330222955478  LUMO = 0.0565869302137186
   mo_energy = [-3.27782007e+01 -1.93330223e+00  5.65869302e-02  3.66902163e-01
  4.30075618e-01  4.30075618e-01  1.41513490e+00  1.41513490e+00
  1.81929257e+00  3.82910130e+00  3.82910130e+00  7.86729477e+00
  1.19680058e+01  1.19680058e+01  3.42928946e+01  5.13151904e+01
  5.13151904e+01  1.65054972e+02]
B1g nocc = 0
   mo_energy = [ 0.43007562  1.4151349   3.8291013  11.96800584 51.3151904 ]
B2g nocc = 0
   mo_energy = [ 0.43007562  1.4151349   3.8291013  11.96800584 51.3151904 ]
B3g nocc = 0
   mo_energy = [ 0.43007562  1.4151349   3.8291013  11.96800584 51.3151904 ]
Au nocc = 0
   mo_energy = [ 1.84477567  5.22572214 12.77336811]
B1u nocc = 1  HOMO = -0.851128652466146  LUMO = 0.0610493084903578
   mo_energy = [-8.51128652e-01  6.10493085e-02  3.09371459e-01  1.40500869e+00
  1.84477567e+00  1.84477567e+00  5.22572214e+00  5.22572214e+00
  6.04544207e+00  1.27733681e+01  1.27733681e+01  2.95550797e+01
  1.39492208e+02]
B2u nocc = 1  HOMO = -0.851128652466151  LUMO = 0.0610493084903579
   mo_energy = [-8.51128652e-01  6.10493085e-02  3.09371459e-01  1.40500869e+00
  1.84477567e+00  1.84477567e+00  5.22572214e+00  5.22572214e+00
  6.04544207e+00  1.27733681e+01  1.27733681e+01  2.95550797e+01
  1.39492208e+02]
B3u nocc = 1  HOMO = -0.851128652466153  LUMO = 0.061049308490358
   mo_energy = [-8.51128652e-01  6.10493085e-02  3.09371459e-01  1.40500869e+00
  1.84477567e+00  1.84477567e+00  5.22572214e+00  5.22572214e+00
  6.04544207e+00  1.27733681e+01  1.27733681e+01  2.95550797e+01
  1.39492208e+02]
E1 = -182.53683788430345  E_coul = 54.003530064352745
cycle= 14 E= -128.533307819951  delta_E=    0  |g|= 2.8e-13  |ddm|= 1.04e-13
    CPU time for cycle= 14      0.04 sec, wall time      0.01 sec
diis-norm(errvec)=5.23543e-13
Linear dependence found in DIIS error vectors.
diis-c [-2.89052492e-16  1.25000000e-01  1.25000000e-01  1.25000000e-01
  1.25000000e-01  1.25000000e-01  1.25000000e-01  1.25000000e-01
  1.25000000e-01]
HOMO (B1u) = -0.851128652466076  LUMO (Ag) = 0.0565869302137258
irrep_nelec = [4, 0, 0, 0, 0, 2, 2, 2]
Ag nocc = 2  HOMO = -1.93330222955469  LUMO = 0.0565869302137258
   mo_energy = [-3.27782007e+01 -1.93330223e+00  5.65869302e-02  3.66902163e-01
  4.30075618e-01  4.30075618e-01  1.41513490e+00  1.41513490e+00
  1.81929257e+00  3.82910130e+00  3.82910130e+00  7.86729477e+00
  1.19680058e+01  1.19680058e+01  3.42928946e+01  5.13151904e+01
  5.13151904e+01  1.65054972e+02]
B1g nocc = 0
   mo_energy = [ 0.43007562  1.4151349   3.8291013  11.96800584 51.3151904 ]
B2g nocc = 0
   mo_energy = [ 0.43007562  1.4151349   3.8291013  11.96800584 51.3151904 ]
B3g nocc = 0
   mo_energy = [ 0.43007562  1.4151349   3.8291013  11.96800584 51.3151904 ]
Au nocc = 0
   mo_energy = [ 1.84477567  5.22572214 12.77336811]
B1u nocc = 1  HOMO = -0.851128652466076  LUMO = 0.0610493084903586
   mo_energy = [-8.51128652e-01  6.10493085e-02  3.09371459e-01  1.40500869e+00
  1.84477567e+00  1.84477567e+00  5.22572214e+00  5.22572214e+00
  6.04544207e+00  1.27733681e+01  1.27733681e+01  2.95550797e+01
  1.39492208e+02]
B2u nocc = 1  HOMO = -0.85112865246608  LUMO = 0.061049308490358
   mo_energy = [-8.51128652e-01  6.10493085e-02  3.09371459e-01  1.40500869e+00
  1.84477567e+00  1.84477567e+00  5.22572214e+00  5.22572214e+00
  6.04544207e+00  1.27733681e+01  1.27733681e+01  2.95550797e+01
  1.39492208e+02]
B3u nocc = 1  HOMO = -0.851128652466077  LUMO = 0.0610493084903578
   mo_energy = [-8.51128652e-01  6.10493085e-02  3.09371459e-01  1.40500869e+00
  1.84477567e+00  1.84477567e+00  5.22572214e+00  5.22572214e+00
  6.04544207e+00  1.27733681e+01  1.27733681e+01  2.95550797e+01
  1.39492208e+02]
E1 = -182.53683788430314  E_coul = 54.003530064352375
cycle= 15 E= -128.533307819951  delta_E= -5.68e-14  |g|= 2.9e-13  |ddm|= 2.52e-13
    CPU time for cycle= 15      0.04 sec, wall time      0.01 sec
diis-norm(errvec)=3.958e-13
Linear dependence found in DIIS error vectors.
diis-c [-2.89052492e-16  1.25000000e-01  1.25000000e-01  1.25000000e-01
  1.25000000e-01  1.25000000e-01  1.25000000e-01  1.25000000e-01
  1.25000000e-01]
HOMO (B1u) = -0.851128652466018  LUMO (Ag) = 0.0565869302137305
irrep_nelec = [4, 0, 0, 0, 0, 2, 2, 2]
Ag nocc = 2  HOMO = -1.93330222955464  LUMO = 0.0565869302137305
   mo_energy = [-3.27782007e+01 -1.93330223e+00  5.65869302e-02  3.66902163e-01
  4.30075618e-01  4.30075618e-01  1.41513490e+00  1.41513490e+00
  1.81929257e+00  3.82910130e+00  3.82910130e+00  7.86729477e+00
  1.19680058e+01  1.19680058e+01  3.42928946e+01  5.13151904e+01
  5.13151904e+01  1.65054972e+02]
B1g nocc = 0
   mo_energy = [ 0.43007562  1.4151349   3.8291013  11.96800584 51.3151904 ]
B2g nocc = 0
   mo_energy = [ 0.43007562  1.4151349   3.8291013  11.96800584 51.3151904 ]
B3g nocc = 0
   mo_energy = [ 0.43007562  1.4151349   3.8291013  11.96800584 51.3151904 ]
Au nocc = 0
   mo_energy = [ 1.84477567  5.22572214 12.77336811]
B1u nocc = 1  HOMO = -0.851128652466018  LUMO = 0.0610493084903583
   mo_energy = [-8.51128652e-01  6.10493085e-02  3.09371459e-01  1.40500869e+00
  1.84477567e+00  1.84477567e+00  5.22572214e+00  5.22572214e+00
  6.04544207e+00  1.27733681e+01  1.27733681e+01  2.95550797e+01
  1.39492208e+02]
B2u nocc = 1  HOMO = -0.851128652466019  LUMO = 0.0610493084903576
   mo_energy = [-8.51128652e-01  6.10493085e-02  3.09371459e-01  1.40500869e+00
  1.84477567e+00  1.84477567e+00  5.22572214e+00  5.22572214e+00
  6.04544207e+00  1.27733681e+01  1.27733681e+01  2.95550797e+01
  1.39492208e+02]
B3u nocc = 1  HOMO = -0.851128652466026  LUMO = 0.0610493084903583
   mo_energy = [-8.51128652e-01  6.10493085e-02  3.09371459e-01  1.40500869e+00
  1.84477567e+00  1.84477567e+00  5.22572214e+00  5.22572214e+00
  6.04544207e+00  1.27733681e+01  1.27733681e+01  2.95550797e+01
  1.39492208e+02]
E1 = -182.5368378843027  E_coul = 54.00353006435195
cycle= 16 E= -128.533307819951  delta_E=    0  |g|= 3.97e-13  |ddm|= 8.17e-14
    CPU time for cycle= 16      0.04 sec, wall time      0.01 sec
diis-norm(errvec)=5.72228e-13
Linear dependence found in DIIS error vectors.
diis-c [-2.89052492e-16  1.25000000e-01  1.25000000e-01  1.25000000e-01
  1.25000000e-01  1.25000000e-01  1.25000000e-01  1.25000000e-01
  1.25000000e-01]
HOMO (B2u) = -0.851128652465986  LUMO (Ag) = 0.0565869302137327
irrep_nelec = [4, 0, 0, 0, 0, 2, 2, 2]
Ag nocc = 2  HOMO = -1.93330222955459  LUMO = 0.0565869302137327
   mo_energy = [-3.27782007e+01 -1.93330223e+00  5.65869302e-02  3.66902163e-01
  4.30075618e-01  4.30075618e-01  1.41513490e+00  1.41513490e+00
  1.81929257e+00  3.82910130e+00  3.82910130e+00  7.86729477e+00
  1.19680058e+01  1.19680058e+01  3.42928946e+01  5.13151904e+01
  5.13151904e+01  1.65054972e+02]
B1g nocc = 0
   mo_energy = [ 0.43007562  1.4151349   3.8291013  11.96800584 51.3151904 ]
B2g nocc = 0
   mo_energy = [ 0.43007562  1.4151349   3.8291013  11.96800584 51.3151904 ]
B3g nocc = 0
   mo_energy = [ 0.43007562  1.4151349   3.8291013  11.96800584 51.3151904 ]
Au nocc = 0
   mo_energy = [ 1.84477567  5.22572214 12.77336811]
B1u nocc = 1  HOMO = -0.851128652465992  LUMO = 0.0610493084903579
   mo_energy = [-8.51128652e-01  6.10493085e-02  3.09371459e-01  1.40500869e+00
  1.84477567e+00  1.84477567e+00  5.22572214e+00  5.22572214e+00
  6.04544207e+00  1.27733681e+01  1.27733681e+01  2.95550797e+01
  1.39492208e+02]
B2u nocc = 1  HOMO = -0.851128652465986  LUMO = 0.0610493084903579
   mo_energy = [-8.51128652e-01  6.10493085e-02  3.09371459e-01  1.40500869e+00
  1.84477567e+00  1.84477567e+00  5.22572214e+00  5.22572214e+00
  6.04544207e+00  1.27733681e+01  1.27733681e+01  2.95550797e+01
  1.39492208e+02]
B3u nocc = 1  HOMO = -0.851128652465989  LUMO = 0.0610493084903586
   mo_energy = [-8.51128652e-01  6.10493085e-02  3.09371459e-01  1.40500869e+00
  1.84477567e+00  1.84477567e+00  5.22572214e+00  5.22572214e+00
  6.04544207e+00  1.27733681e+01  1.27733681e+01  2.95550797e+01
  1.39492208e+02]
E1 = -182.53683788430243  E_coul = 54.00353006435181
cycle= 17 E= -128.533307819951  delta_E= 1.71e-13  |g|= 4.29e-13  |ddm|= 4.29e-14
    CPU time for cycle= 17      0.04 sec, wall time      0.01 sec
diis-norm(errvec)=6.50333e-13
Linear dependence found in DIIS error vectors.
diis-c [-2.89052492e-16  1.25000000e-01  1.25000000e-01  1.25000000e-01
  1.25000000e-01  1.25000000e-01  1.25000000e-01  1.25000000e-01
  1.25000000e-01]
HOMO (B1u) = -0.851128652465957  LUMO (Ag) = 0.0565869302137412
irrep_nelec = [4, 0, 0, 0, 0, 2, 2, 2]
Ag nocc = 2  HOMO = -1.93330222955455  LUMO = 0.0565869302137412
   mo_energy = [-3.27782007e+01 -1.93330223e+00  5.65869302e-02  3.66902163e-01
  4.30075618e-01  4.30075618e-01  1.41513490e+00  1.41513490e+00
  1.81929257e+00  3.82910130e+00  3.82910130e+00  7.86729477e+00
  1.19680058e+01  1.19680058e+01  3.42928946e+01  5.13151904e+01
  5.13151904e+01  1.65054972e+02]
B1g nocc = 0
   mo_energy = [ 0.43007562  1.4151349   3.8291013  11.96800584 51.3151904 ]
B2g nocc = 0
   mo_energy = [ 0.43007562  1.4151349   3.8291013  11.96800584 51.3151904 ]
B3g nocc = 0
   mo_energy = [ 0.43007562  1.4151349   3.8291013  11.96800584 51.3151904 ]
Au nocc = 0
   mo_energy = [ 1.84477567  5.22572214 12.77336811]
B1u nocc = 1  HOMO = -0.851128652465957  LUMO = 0.0610493084903578
   mo_energy = [-8.51128652e-01  6.10493085e-02  3.09371459e-01  1.40500869e+00
  1.84477567e+00  1.84477567e+00  5.22572214e+00  5.22572214e+00
  6.04544207e+00  1.27733681e+01  1.27733681e+01  2.95550797e+01
  1.39492208e+02]
B2u nocc = 1  HOMO = -0.85112865246596  LUMO = 0.0610493084903584
   mo_energy = [-8.51128652e-01  6.10493085e-02  3.09371459e-01  1.40500869e+00
  1.84477567e+00  1.84477567e+00  5.22572214e+00  5.22572214e+00
  6.04544207e+00  1.27733681e+01  1.27733681e+01  2.95550797e+01
  1.39492208e+02]
B3u nocc = 1  HOMO = -0.851128652465959  LUMO = 0.0610493084903586
   mo_energy = [-8.51128652e-01  6.10493085e-02  3.09371459e-01  1.40500869e+00
  1.84477567e+00  1.84477567e+00  5.22572214e+00  5.22572214e+00
  6.04544207e+00  1.27733681e+01  1.27733681e+01  2.95550797e+01
  1.39492208e+02]
E1 = -182.5368378843023  E_coul = 54.003530064351644
cycle= 18 E= -128.533307819951  delta_E= -2.84e-14  |g|= 4.68e-13  |ddm|= 2.75e-14
    CPU time for cycle= 18      0.04 sec, wall time      0.01 sec
diis-norm(errvec)=6.85255e-13
Linear dependence found in DIIS error vectors.
diis-c [-2.89052492e-16  1.25000000e-01  1.25000000e-01  1.25000000e-01
  1.25000000e-01  1.25000000e-01  1.25000000e-01  1.25000000e-01
  1.25000000e-01]
HOMO (B1u) = -0.851128652466092  LUMO (Ag) = 0.056586930213743
irrep_nelec = [4, 0, 0, 0, 0, 2, 2, 2]
Ag nocc = 2  HOMO = -1.9333022295547  LUMO = 0.056586930213743
   mo_energy = [-3.27782007e+01 -1.93330223e+00  5.65869302e-02  3.66902163e-01
  4.30075618e-01  4.30075618e-01  1.41513490e+00  1.41513490e+00
  1.81929257e+00  3.82910130e+00  3.82910130e+00  7.86729477e+00
  1.19680058e+01  1.19680058e+01  3.42928946e+01  5.13151904e+01
  5.13151904e+01  1.65054972e+02]
B1g nocc = 0
   mo_energy = [ 0.43007562  1.4151349   3.8291013  11.96800584 51.3151904 ]
B2g nocc = 0
   mo_energy = [ 0.43007562  1.4151349   3.8291013  11.96800584 51.3151904 ]
B3g nocc = 0
   mo_energy = [ 0.43007562  1.4151349   3.8291013  11.96800584 51.3151904 ]
Au nocc = 0
   mo_energy = [ 1.84477567  5.22572214 12.77336811]
B1u nocc = 1  HOMO = -0.851128652466092  LUMO = 0.0610493084903578
   mo_energy = [-8.51128652e-01  6.10493085e-02  3.09371459e-01  1.40500869e+00
  1.84477567e+00  1.84477567e+00  5.22572214e+00  5.22572214e+00
  6.04544207e+00  1.27733681e+01  1.27733681e+01  2.95550797e+01
  1.39492208e+02]
B2u nocc = 1  HOMO = -0.851128652466094  LUMO = 0.0610493084903576
   mo_energy = [-8.51128652e-01  6.10493085e-02  3.09371459e-01  1.40500869e+00
  1.84477567e+00  1.84477567e+00  5.22572214e+00  5.22572214e+00
  6.04544207e+00  1.27733681e+01  1.27733681e+01  2.95550797e+01
  1.39492208e+02]
B3u nocc = 1  HOMO = -0.851128652466095  LUMO = 0.0610493084903581
   mo_energy = [-8.51128652e-01  6.10493085e-02  3.09371459e-01  1.40500869e+00
  1.84477567e+00  1.84477567e+00  5.22572214e+00  5.22572214e+00
  6.04544207e+00  1.27733681e+01  1.27733681e+01  2.95550797e+01
  1.39492208e+02]
E1 = -182.53683788430354  E_coul = 54.00353006435274
cycle= 19 E= -128.533307819951  delta_E= -1.71e-13  |g|= 2.56e-13  |ddm|= 1.52e-13
    CPU time for cycle= 19      0.04 sec, wall time      0.01 sec
diis-norm(errvec)=3.52736e-13
Linear dependence found in DIIS error vectors.
diis-c [-2.89052492e-16  1.25000000e-01  1.25000000e-01  1.25000000e-01
  1.25000000e-01  1.25000000e-01  1.25000000e-01  1.25000000e-01
  1.25000000e-01]
HOMO (B1u) = -0.851128652466129  LUMO (Ag) = 0.0565869302137331
irrep_nelec = [4, 0, 0, 0, 0, 2, 2, 2]
Ag nocc = 2  HOMO = -1.93330222955474  LUMO = 0.0565869302137331
   mo_energy = [-3.27782007e+01 -1.93330223e+00  5.65869302e-02  3.66902163e-01
  4.30075618e-01  4.30075618e-01  1.41513490e+00  1.41513490e+00
  1.81929257e+00  3.82910130e+00  3.82910130e+00  7.86729477e+00
  1.19680058e+01  1.19680058e+01  3.42928946e+01  5.13151904e+01
  5.13151904e+01  1.65054972e+02]
B1g nocc = 0
   mo_energy = [ 0.43007562  1.4151349   3.8291013  11.96800584 51.3151904 ]
B2g nocc = 0
   mo_energy = [ 0.43007562  1.4151349   3.8291013  11.96800584 51.3151904 ]
B3g nocc = 0
   mo_energy = [ 0.43007562  1.4151349   3.8291013  11.96800584 51.3151904 ]
Au nocc = 0
   mo_energy = [ 1.84477567  5.22572214 12.77336811]
B1u nocc = 1  HOMO = -0.851128652466129  LUMO = 0.0610493084903583
   mo_energy = [-8.51128652e-01  6.10493085e-02  3.09371459e-01  1.40500869e+00
  1.84477567e+00  1.84477567e+00  5.22572214e+00  5.22572214e+00
  6.04544207e+00  1.27733681e+01  1.27733681e+01  2.95550797e+01
  1.39492208e+02]
B2u nocc = 1  HOMO = -0.851128652466135  LUMO = 0.0610493084903579
   mo_energy = [-8.51128652e-01  6.10493085e-02  3.09371459e-01  1.40500869e+00
  1.84477567e+00  1.84477567e+00  5.22572214e+00  5.22572214e+00
  6.04544207e+00  1.27733681e+01  1.27733681e+01  2.95550797e+01
  1.39492208e+02]
B3u nocc = 1  HOMO = -0.851128652466132  LUMO = 0.0610493084903581
   mo_energy = [-8.51128652e-01  6.10493085e-02  3.09371459e-01  1.40500869e+00
  1.84477567e+00  1.84477567e+00  5.22572214e+00  5.22572214e+00
  6.04544207e+00  1.27733681e+01  1.27733681e+01  2.95550797e+01
  1.39492208e+02]
E1 = -182.53683788430357  E_coul = 54.003530064352965
cycle= 20 E= -128.533307819951  delta_E= 1.99e-13  |g|= 2.07e-13  |ddm|= 5.57e-14
    CPU time for cycle= 20      0.04 sec, wall time      0.01 sec
diis-norm(errvec)=2.98315e-13
Linear dependence found in DIIS error vectors.
diis-c [-2.89052492e-16  1.25000000e-01  1.25000000e-01  1.25000000e-01
  1.25000000e-01  1.25000000e-01  1.25000000e-01  1.25000000e-01
  1.25000000e-01]
HOMO (B2u) = -0.851128652466141  LUMO (Ag) = 0.0565869302137534
irrep_nelec = [4, 0, 0, 0, 0, 2, 2, 2]
Ag nocc = 2  HOMO = -1.93330222955475  LUMO = 0.0565869302137534
   mo_energy = [-3.27782007e+01 -1.93330223e+00  5.65869302e-02  3.66902163e-01
  4.30075618e-01  4.30075618e-01  1.41513490e+00  1.41513490e+00
  1.81929257e+00  3.82910130e+00  3.82910130e+00  7.86729477e+00
  1.19680058e+01  1.19680058e+01  3.42928946e+01  5.13151904e+01
  5.13151904e+01  1.65054972e+02]
B1g nocc = 0
   mo_energy = [ 0.43007562  1.4151349   3.8291013  11.96800584 51.3151904 ]
B2g nocc = 0
   mo_energy = [ 0.43007562  1.4151349   3.8291013  11.96800584 51.3151904 ]
B3g nocc = 0
   mo_energy = [ 0.43007562  1.4151349   3.8291013  11.96800584 51.3151904 ]
Au nocc = 0
   mo_energy = [ 1.84477567  5.22572214 12.77336811]
B1u nocc = 1  HOMO = -0.851128652466149  LUMO = 0.0610493084903583
   mo_energy = [-8.51128652e-01  6.10493085e-02  3.09371459e-01  1.40500869e+00
  1.84477567e+00  1.84477567e+00  5.22572214e+00  5.22572214e+00
  6.04544207e+00  1.27733681e+01  1.27733681e+01  2.95550797e+01
  1.39492208e+02]
B2u nocc = 1  HOMO = -0.851128652466141  LUMO = 0.0610493084903585
   mo_energy = [-8.51128652e-01  6.10493085e-02  3.09371459e-01  1.40500869e+00
  1.84477567e+00  1.84477567e+00  5.22572214e+00  5.22572214e+00
  6.04544207e+00  1.27733681e+01  1.27733681e+01  2.95550797e+01
  1.39492208e+02]
B3u nocc = 1  HOMO = -0.851128652466141  LUMO = 0.0610493084903583
   mo_energy = [-8.51128652e-01  6.10493085e-02  3.09371459e-01  1.40500869e+00
  1.84477567e+00  1.84477567e+00  5.22572214e+00  5.22572214e+00
  6.04544207e+00  1.27733681e+01  1.27733681e+01  2.95550797e+01
  1.39492208e+02]
E1 = -182.53683788430385  E_coul = 54.003530064353164
cycle= 21 E= -128.533307819951  delta_E= -8.53e-14  |g|= 2.64e-13  |ddm|= 2.71e-14
    CPU time for cycle= 21      0.04 sec, wall time      0.01 sec
diis-norm(errvec)=4.06988e-13
Linear dependence found in DIIS error vectors.
diis-c [-2.89052492e-16  1.25000000e-01  1.25000000e-01  1.25000000e-01
  1.25000000e-01  1.25000000e-01  1.25000000e-01  1.25000000e-01
  1.25000000e-01]
HOMO (B1u) = -0.851128652466144  LUMO (Ag) = 0.0565869302137536
irrep_nelec = [4, 0, 0, 0, 0, 2, 2, 2]
Ag nocc = 2  HOMO = -1.93330222955476  LUMO = 0.0565869302137536
   mo_energy = [-3.27782007e+01 -1.93330223e+00  5.65869302e-02  3.66902163e-01
  4.30075618e-01  4.30075618e-01  1.41513490e+00  1.41513490e+00
  1.81929257e+00  3.82910130e+00  3.82910130e+00  7.86729477e+00
  1.19680058e+01  1.19680058e+01  3.42928946e+01  5.13151904e+01
  5.13151904e+01  1.65054972e+02]
B1g nocc = 0
   mo_energy = [ 0.43007562  1.4151349   3.8291013  11.96800584 51.3151904 ]
B2g nocc = 0
   mo_energy = [ 0.43007562  1.4151349   3.8291013  11.96800584 51.3151904 ]
B3g nocc = 0
   mo_energy = [ 0.43007562  1.4151349   3.8291013  11.96800584 51.3151904 ]
Au nocc = 0
   mo_energy = [ 1.84477567  5.22572214 12.77336811]
B1u nocc = 1  HOMO = -0.851128652466144  LUMO = 0.0610493084903579
   mo_energy = [-8.51128652e-01  6.10493085e-02  3.09371459e-01  1.40500869e+00
  1.84477567e+00  1.84477567e+00  5.22572214e+00  5.22572214e+00
  6.04544207e+00  1.27733681e+01  1.27733681e+01  2.95550797e+01
  1.39492208e+02]
B2u nocc = 1  HOMO = -0.851128652466148  LUMO = 0.0610493084903579
   mo_energy = [-8.51128652e-01  6.10493085e-02  3.09371459e-01  1.40500869e+00
  1.84477567e+00  1.84477567e+00  5.22572214e+00  5.22572214e+00
  6.04544207e+00  1.27733681e+01  1.27733681e+01  2.95550797e+01
  1.39492208e+02]
B3u nocc = 1  HOMO = -0.851128652466151  LUMO = 0.0610493084903585
   mo_energy = [-8.51128652e-01  6.10493085e-02  3.09371459e-01  1.40500869e+00
  1.84477567e+00  1.84477567e+00  5.22572214e+00  5.22572214e+00
  6.04544207e+00  1.27733681e+01  1.27733681e+01  2.95550797e+01
  1.39492208e+02]
E1 = -182.5368378843038  E_coul = 54.00353006435311
cycle= 22 E= -128.533307819951  delta_E=    0  |g|= 1.62e-13  |ddm|= 1.03e-13
    CPU time for cycle= 22      0.04 sec, wall time      0.01 sec
diis-norm(errvec)=2.99566e-13
Linear dependence found in DIIS error vectors.
diis-c [-2.89052492e-16  1.25000000e-01  1.25000000e-01  1.25000000e-01
  1.25000000e-01  1.25000000e-01  1.25000000e-01  1.25000000e-01
  1.25000000e-01]
HOMO (B2u) = -0.85112865246614  LUMO (Ag) = 0.0565869302137501
irrep_nelec = [4, 0, 0, 0, 0, 2, 2, 2]
Ag nocc = 2  HOMO = -1.93330222955476  LUMO = 0.0565869302137501
   mo_energy = [-3.27782007e+01 -1.93330223e+00  5.65869302e-02  3.66902163e-01
  4.30075618e-01  4.30075618e-01  1.41513490e+00  1.41513490e+00
  1.81929257e+00  3.82910130e+00  3.82910130e+00  7.86729477e+00
  1.19680058e+01  1.19680058e+01  3.42928946e+01  5.13151904e+01
  5.13151904e+01  1.65054972e+02]
B1g nocc = 0
   mo_energy = [ 0.43007562  1.4151349   3.8291013  11.96800584 51.3151904 ]
B2g nocc = 0
   mo_energy = [ 0.43007562  1.4151349   3.8291013  11.96800584 51.3151904 ]
B3g nocc = 0
   mo_energy = [ 0.43007562  1.4151349   3.8291013  11.96800584 51.3151904 ]
Au nocc = 0
   mo_energy = [ 1.84477567  5.22572214 12.77336811]
B1u nocc = 1  HOMO = -0.851128652466147  LUMO = 0.061049308490358
   mo_energy = [-8.51128652e-01  6.10493085e-02  3.09371459e-01  1.40500869e+00
  1.84477567e+00  1.84477567e+00  5.22572214e+00  5.22572214e+00
  6.04544207e+00  1.27733681e+01  1.27733681e+01  2.95550797e+01
  1.39492208e+02]
B2u nocc = 1  HOMO = -0.85112865246614  LUMO = 0.0610493084903581
   mo_energy = [-8.51128652e-01  6.10493085e-02  3.09371459e-01  1.40500869e+00
  1.84477567e+00  1.84477567e+00  5.22572214e+00  5.22572214e+00
  6.04544207e+00  1.27733681e+01  1.27733681e+01  2.95550797e+01
  1.39492208e+02]
B3u nocc = 1  HOMO = -0.851128652466145  LUMO = 0.0610493084903583
   mo_energy = [-8.51128652e-01  6.10493085e-02  3.09371459e-01  1.40500869e+00
  1.84477567e+00  1.84477567e+00  5.22572214e+00  5.22572214e+00
  6.04544207e+00  1.27733681e+01  1.27733681e+01  2.95550797e+01
  1.39492208e+02]
E1 = -182.5368378843039  E_coul = 54.003530064353185
cycle= 23 E= -128.533307819951  delta_E= -2.84e-14  |g|= 1.57e-13  |ddm|= 1.46e-13
    CPU time for cycle= 23      0.04 sec, wall time      0.01 sec
diis-norm(errvec)=2.77244e-13
Linear dependence found in DIIS error vectors.
diis-c [-2.89052492e-16  1.25000000e-01  1.25000000e-01  1.25000000e-01
  1.25000000e-01  1.25000000e-01  1.25000000e-01  1.25000000e-01
  1.25000000e-01]
HOMO (B2u) = -0.851128652466132  LUMO (Ag) = 0.0565869302137455
irrep_nelec = [4, 0, 0, 0, 0, 2, 2, 2]
Ag nocc = 2  HOMO = -1.93330222955475  LUMO = 0.0565869302137455
   mo_energy = [-3.27782007e+01 -1.93330223e+00  5.65869302e-02  3.66902163e-01
  4.30075618e-01  4.30075618e-01  1.41513490e+00  1.41513490e+00
  1.81929257e+00  3.82910130e+00  3.82910130e+00  7.86729477e+00
  1.19680058e+01  1.19680058e+01  3.42928946e+01  5.13151904e+01
  5.13151904e+01  1.65054972e+02]
B1g nocc = 0
   mo_energy = [ 0.43007562  1.4151349   3.8291013  11.96800584 51.3151904 ]
B2g nocc = 0
   mo_energy = [ 0.43007562  1.4151349   3.8291013  11.96800584 51.3151904 ]
B3g nocc = 0
   mo_energy = [ 0.43007562  1.4151349   3.8291013  11.96800584 51.3151904 ]
Au nocc = 0
   mo_energy = [ 1.84477567  5.22572214 12.77336811]
B1u nocc = 1  HOMO = -0.851128652466134  LUMO = 0.061049308490358
   mo_energy = [-8.51128652e-01  6.10493085e-02  3.09371459e-01  1.40500869e+00
  1.84477567e+00  1.84477567e+00  5.22572214e+00  5.22572214e+00
  6.04544207e+00  1.27733681e+01  1.27733681e+01  2.95550797e+01
  1.39492208e+02]
B2u nocc = 1  HOMO = -0.851128652466132  LUMO = 0.0610493084903588
   mo_energy = [-8.51128652e-01  6.10493085e-02  3.09371459e-01  1.40500869e+00
  1.84477567e+00  1.84477567e+00  5.22572214e+00  5.22572214e+00
  6.04544207e+00  1.27733681e+01  1.27733681e+01  2.95550797e+01
  1.39492208e+02]
B3u nocc = 1  HOMO = -0.851128652466137  LUMO = 0.0610493084903579
   mo_energy = [-8.51128652e-01  6.10493085e-02  3.09371459e-01  1.40500869e+00
  1.84477567e+00  1.84477567e+00  5.22572214e+00  5.22572214e+00
  6.04544207e+00  1.27733681e+01  1.27733681e+01  2.95550797e+01
  1.39492208e+02]
E1 = -182.5368378843038  E_coul = 54.00353006435311
cycle= 24 E= -128.533307819951  delta_E= 2.84e-14  |g|= 3.07e-13  |ddm|= 6e-14
    CPU time for cycle= 24      0.04 sec, wall time      0.01 sec
diis-norm(errvec)=4.28246e-13
Linear dependence found in DIIS error vectors.
diis-c [-2.89052492e-16  1.25000000e-01  1.25000000e-01  1.25000000e-01
  1.25000000e-01  1.25000000e-01  1.25000000e-01  1.25000000e-01
  1.25000000e-01]
HOMO (B3u) = -0.851128652466126  LUMO (Ag) = 0.0565869302137407
irrep_nelec = [4, 0, 0, 0, 0, 2, 2, 2]
Ag nocc = 2  HOMO = -1.93330222955474  LUMO = 0.0565869302137407
   mo_energy = [-3.27782007e+01 -1.93330223e+00  5.65869302e-02  3.66902163e-01
  4.30075618e-01  4.30075618e-01  1.41513490e+00  1.41513490e+00
  1.81929257e+00  3.82910130e+00  3.82910130e+00  7.86729477e+00
  1.19680058e+01  1.19680058e+01  3.42928946e+01  5.13151904e+01
  5.13151904e+01  1.65054972e+02]
B1g nocc = 0
   mo_energy = [ 0.43007562  1.4151349   3.8291013  11.96800584 51.3151904 ]
B2g nocc = 0
   mo_energy = [ 0.43007562  1.4151349   3.8291013  11.96800584 51.3151904 ]
B3g nocc = 0
   mo_energy = [ 0.43007562  1.4151349   3.8291013  11.96800584 51.3151904 ]
Au nocc = 0
   mo_energy = [ 1.84477567  5.22572214 12.77336811]
B1u nocc = 1  HOMO = -0.851128652466127  LUMO = 0.0610493084903587
   mo_energy = [-8.51128652e-01  6.10493085e-02  3.09371459e-01  1.40500869e+00
  1.84477567e+00  1.84477567e+00  5.22572214e+00  5.22572214e+00
  6.04544207e+00  1.27733681e+01  1.27733681e+01  2.95550797e+01
  1.39492208e+02]
B2u nocc = 1  HOMO = -0.851128652466126  LUMO = 0.0610493084903583
   mo_energy = [-8.51128652e-01  6.10493085e-02  3.09371459e-01  1.40500869e+00
  1.84477567e+00  1.84477567e+00  5.22572214e+00  5.22572214e+00
  6.04544207e+00  1.27733681e+01  1.27733681e+01  2.95550797e+01
  1.39492208e+02]
B3u nocc = 1  HOMO = -0.851128652466126  LUMO = 0.0610493084903577
   mo_energy = [-8.51128652e-01  6.10493085e-02  3.09371459e-01  1.40500869e+00
  1.84477567e+00  1.84477567e+00  5.22572214e+00  5.22572214e+00
  6.04544207e+00  1.27733681e+01  1.27733681e+01  2.95550797e+01
  1.39492208e+02]
E1 = -182.53683788430357  E_coul = 54.003530064352965
cycle= 25 E= -128.533307819951  delta_E= 8.53e-14  |g|= 3.08e-13  |ddm|= 5.28e-14
    CPU time for cycle= 25      0.04 sec, wall time      0.01 sec
diis-norm(errvec)=2.48255e-13
Linear dependence found in DIIS error vectors.
diis-c [-2.89052492e-16  1.25000000e-01  1.25000000e-01  1.25000000e-01
  1.25000000e-01  1.25000000e-01  1.25000000e-01  1.25000000e-01
  1.25000000e-01]
HOMO (B2u) = -0.85112865246611  LUMO (Ag) = 0.0565869302137404
irrep_nelec = [4, 0, 0, 0, 0, 2, 2, 2]
Ag nocc = 2  HOMO = -1.93330222955471  LUMO = 0.0565869302137404
   mo_energy = [-3.27782007e+01 -1.93330223e+00  5.65869302e-02  3.66902163e-01
  4.30075618e-01  4.30075618e-01  1.41513490e+00  1.41513490e+00
  1.81929257e+00  3.82910130e+00  3.82910130e+00  7.86729477e+00
  1.19680058e+01  1.19680058e+01  3.42928946e+01  5.13151904e+01
  5.13151904e+01  1.65054972e+02]
B1g nocc = 0
   mo_energy = [ 0.43007562  1.4151349   3.8291013  11.96800584 51.3151904 ]
B2g nocc = 0
   mo_energy = [ 0.43007562  1.4151349   3.8291013  11.96800584 51.3151904 ]
B3g nocc = 0
   mo_energy = [ 0.43007562  1.4151349   3.8291013  11.96800584 51.3151904 ]
Au nocc = 0
   mo_energy = [ 1.84477567  5.22572214 12.77336811]
B1u nocc = 1  HOMO = -0.851128652466115  LUMO = 0.0610493084903583
   mo_energy = [-8.51128652e-01  6.10493085e-02  3.09371459e-01  1.40500869e+00
  1.84477567e+00  1.84477567e+00  5.22572214e+00  5.22572214e+00
  6.04544207e+00  1.27733681e+01  1.27733681e+01  2.95550797e+01
  1.39492208e+02]
B2u nocc = 1  HOMO = -0.85112865246611  LUMO = 0.061049308490358
   mo_energy = [-8.51128652e-01  6.10493085e-02  3.09371459e-01  1.40500869e+00
  1.84477567e+00  1.84477567e+00  5.22572214e+00  5.22572214e+00
  6.04544207e+00  1.27733681e+01  1.27733681e+01  2.95550797e+01
  1.39492208e+02]
B3u nocc = 1  HOMO = -0.851128652466114  LUMO = 0.0610493084903584
   mo_energy = [-8.51128652e-01  6.10493085e-02  3.09371459e-01  1.40500869e+00
  1.84477567e+00  1.84477567e+00  5.22572214e+00  5.22572214e+00
  6.04544207e+00  1.27733681e+01  1.27733681e+01  2.95550797e+01
  1.39492208e+02]
E1 = -182.53683788430357  E_coul = 54.0035300643529
cycle= 26 E= -128.533307819951  delta_E= -5.68e-14  |g|= 1.45e-13  |ddm|= 8.48e-14
    CPU time for cycle= 26      0.04 sec, wall time      0.01 sec
diis-norm(errvec)=2.75716e-13
Linear dependence found in DIIS error vectors.
diis-c [-2.89052492e-16  1.25000000e-01  1.25000000e-01  1.25000000e-01
  1.25000000e-01  1.25000000e-01  1.25000000e-01  1.25000000e-01
  1.25000000e-01]
HOMO (B3u) = -0.851128652466095  LUMO (Ag) = 0.056586930213725
irrep_nelec = [4, 0, 0, 0, 0, 2, 2, 2]
Ag nocc = 2  HOMO = -1.93330222955471  LUMO = 0.056586930213725
   mo_energy = [-3.27782007e+01 -1.93330223e+00  5.65869302e-02  3.66902163e-01
  4.30075618e-01  4.30075618e-01  1.41513490e+00  1.41513490e+00
  1.81929257e+00  3.82910130e+00  3.82910130e+00  7.86729477e+00
  1.19680058e+01  1.19680058e+01  3.42928946e+01  5.13151904e+01
  5.13151904e+01  1.65054972e+02]
B1g nocc = 0
   mo_energy = [ 0.43007562  1.4151349   3.8291013  11.96800584 51.3151904 ]
B2g nocc = 0
   mo_energy = [ 0.43007562  1.4151349   3.8291013  11.96800584 51.3151904 ]
B3g nocc = 0
   mo_energy = [ 0.43007562  1.4151349   3.8291013  11.96800584 51.3151904 ]
Au nocc = 0
   mo_energy = [ 1.84477567  5.22572214 12.77336811]
B1u nocc = 1  HOMO = -0.851128652466105  LUMO = 0.0610493084903577
   mo_energy = [-8.51128652e-01  6.10493085e-02  3.09371459e-01  1.40500869e+00
  1.84477567e+00  1.84477567e+00  5.22572214e+00  5.22572214e+00
  6.04544207e+00  1.27733681e+01  1.27733681e+01  2.95550797e+01
  1.39492208e+02]
B2u nocc = 1  HOMO = -0.851128652466098  LUMO = 0.0610493084903585
   mo_energy = [-8.51128652e-01  6.10493085e-02  3.09371459e-01  1.40500869e+00
  1.84477567e+00  1.84477567e+00  5.22572214e+00  5.22572214e+00
  6.04544207e+00  1.27733681e+01  1.27733681e+01  2.95550797e+01
  1.39492208e+02]
B3u nocc = 1  HOMO = -0.851128652466095  LUMO = 0.0610493084903585
   mo_energy = [-8.51128652e-01  6.10493085e-02  3.09371459e-01  1.40500869e+00
  1.84477567e+00  1.84477567e+00  5.22572214e+00  5.22572214e+00
  6.04544207e+00  1.27733681e+01  1.27733681e+01  2.95550797e+01
  1.39492208e+02]
E1 = -182.5368378843036  E_coul = 54.00353006435286
[...]
  1.84477567e+00  1.84477567e+00  5.22572214e+00  5.22572214e+00
  6.04544207e+00  1.27733681e+01  1.27733681e+01  2.95550797e+01
  1.39492208e+02]
B2u nocc = 1  HOMO = -0.851128652466104  LUMO = 0.0610493084903588
   mo_energy = [-8.51128652e-01  6.10493085e-02  3.09371459e-01  1.40500869e+00
  1.84477567e+00  1.84477567e+00  5.22572214e+00  5.22572214e+00
  6.04544207e+00  1.27733681e+01  1.27733681e+01  2.95550797e+01
  1.39492208e+02]
B3u nocc = 1  HOMO = -0.851128652466107  LUMO = 0.0610493084903584
   mo_energy = [-8.51128652e-01  6.10493085e-02  3.09371459e-01  1.40500869e+00
  1.84477567e+00  1.84477567e+00  5.22572214e+00  5.22572214e+00
  6.04544207e+00  1.27733681e+01  1.27733681e+01  2.95550797e+01
  1.39492208e+02]
E1 = -182.53683788430342  E_coul = 54.00353006435284
cycle= 280 E= -128.533307819951  delta_E= 1.14e-13  |g|= 1.15e-13  |ddm|= 1.95e-14
    CPU time for cycle= 280      0.04 sec, wall time      0.01 sec
diis-norm(errvec)=3.31338e-13
Linear dependence found in DIIS error vectors.
diis-c [-2.89052492e-16  1.25000000e-01  1.25000000e-01  1.25000000e-01
  1.25000000e-01  1.25000000e-01  1.25000000e-01  1.25000000e-01
  1.25000000e-01]
HOMO (B1u) = -0.851128652466105  LUMO (Ag) = 0.0565869302137322
irrep_nelec = [4, 0, 0, 0, 0, 2, 2, 2]
Ag nocc = 2  HOMO = -1.93330222955471  LUMO = 0.0565869302137322
   mo_energy = [-3.27782007e+01 -1.93330223e+00  5.65869302e-02  3.66902163e-01
  4.30075618e-01  4.30075618e-01  1.41513490e+00  1.41513490e+00
  1.81929257e+00  3.82910130e+00  3.82910130e+00  7.86729477e+00
  1.19680058e+01  1.19680058e+01  3.42928946e+01  5.13151904e+01
  5.13151904e+01  1.65054972e+02]
B1g nocc = 0
   mo_energy = [ 0.43007562  1.4151349   3.8291013  11.96800584 51.3151904 ]
B2g nocc = 0
   mo_energy = [ 0.43007562  1.4151349   3.8291013  11.96800584 51.3151904 ]
B3g nocc = 0
   mo_energy = [ 0.43007562  1.4151349   3.8291013  11.96800584 51.3151904 ]
Au nocc = 0
   mo_energy = [ 1.84477567  5.22572214 12.77336811]
B1u nocc = 1  HOMO = -0.851128652466105  LUMO = 0.0610493084903585
   mo_energy = [-8.51128652e-01  6.10493085e-02  3.09371459e-01  1.40500869e+00
  1.84477567e+00  1.84477567e+00  5.22572214e+00  5.22572214e+00
  6.04544207e+00  1.27733681e+01  1.27733681e+01  2.95550797e+01
  1.39492208e+02]
B2u nocc = 1  HOMO = -0.851128652466111  LUMO = 0.0610493084903591
   mo_energy = [-8.51128652e-01  6.10493085e-02  3.09371459e-01  1.40500869e+00
  1.84477567e+00  1.84477567e+00  5.22572214e+00  5.22572214e+00
  6.04544207e+00  1.27733681e+01  1.27733681e+01  2.95550797e+01
  1.39492208e+02]
B3u nocc = 1  HOMO = -0.851128652466111  LUMO = 0.0610493084903584
   mo_energy = [-8.51128652e-01  6.10493085e-02  3.09371459e-01  1.40500869e+00
  1.84477567e+00  1.84477567e+00  5.22572214e+00  5.22572214e+00
  6.04544207e+00  1.27733681e+01  1.27733681e+01  2.95550797e+01
  1.39492208e+02]
E1 = -182.5368378843035  E_coul = 54.00353006435287
cycle= 281 E= -128.533307819951  delta_E= -5.68e-14  |g|= 1.88e-13  |ddm|= 2.14e-14
    CPU time for cycle= 281      0.04 sec, wall time      0.01 sec
diis-norm(errvec)=2.72536e-13
Linear dependence found in DIIS error vectors.
diis-c [-2.89052492e-16  1.25000000e-01  1.25000000e-01  1.25000000e-01
  1.25000000e-01  1.25000000e-01  1.25000000e-01  1.25000000e-01
  1.25000000e-01]
HOMO (B1u) = -0.851128652466105  LUMO (Ag) = 0.0565869302137351
irrep_nelec = [4, 0, 0, 0, 0, 2, 2, 2]
Ag nocc = 2  HOMO = -1.93330222955472  LUMO = 0.0565869302137351
   mo_energy = [-3.27782007e+01 -1.93330223e+00  5.65869302e-02  3.66902163e-01
  4.30075618e-01  4.30075618e-01  1.41513490e+00  1.41513490e+00
  1.81929257e+00  3.82910130e+00  3.82910130e+00  7.86729477e+00
  1.19680058e+01  1.19680058e+01  3.42928946e+01  5.13151904e+01
  5.13151904e+01  1.65054972e+02]
B1g nocc = 0
   mo_energy = [ 0.43007562  1.4151349   3.8291013  11.96800584 51.3151904 ]
B2g nocc = 0
   mo_energy = [ 0.43007562  1.4151349   3.8291013  11.96800584 51.3151904 ]
B3g nocc = 0
   mo_energy = [ 0.43007562  1.4151349   3.8291013  11.96800584 51.3151904 ]
Au nocc = 0
   mo_energy = [ 1.84477567  5.22572214 12.77336811]
B1u nocc = 1  HOMO = -0.851128652466105  LUMO = 0.0610493084903587
   mo_energy = [-8.51128652e-01  6.10493085e-02  3.09371459e-01  1.40500869e+00
  1.84477567e+00  1.84477567e+00  5.22572214e+00  5.22572214e+00
  6.04544207e+00  1.27733681e+01  1.27733681e+01  2.95550797e+01
  1.39492208e+02]
B2u nocc = 1  HOMO = -0.851128652466115  LUMO = 0.0610493084903588
   mo_energy = [-8.51128652e-01  6.10493085e-02  3.09371459e-01  1.40500869e+00
  1.84477567e+00  1.84477567e+00  5.22572214e+00  5.22572214e+00
  6.04544207e+00  1.27733681e+01  1.27733681e+01  2.95550797e+01
  1.39492208e+02]
B3u nocc = 1  HOMO = -0.851128652466112  LUMO = 0.0610493084903579
   mo_energy = [-8.51128652e-01  6.10493085e-02  3.09371459e-01  1.40500869e+00
  1.84477567e+00  1.84477567e+00  5.22572214e+00  5.22572214e+00
  6.04544207e+00  1.27733681e+01  1.27733681e+01  2.95550797e+01
  1.39492208e+02]
E1 = -182.53683788430357  E_coul = 54.0035300643529
cycle= 282 E= -128.533307819951  delta_E= -2.84e-14  |g|= 2e-13  |ddm|= 1.28e-13
    CPU time for cycle= 282      0.04 sec, wall time      0.01 sec
diis-norm(errvec)=1.64379e-13
Linear dependence found in DIIS error vectors.
diis-c [-2.89052492e-16  1.25000000e-01  1.25000000e-01  1.25000000e-01
  1.25000000e-01  1.25000000e-01  1.25000000e-01  1.25000000e-01
  1.25000000e-01]
HOMO (B3u) = -0.85112865246611  LUMO (Ag) = 0.0565869302137206
irrep_nelec = [4, 0, 0, 0, 0, 2, 2, 2]
Ag nocc = 2  HOMO = -1.93330222955472  LUMO = 0.0565869302137206
   mo_energy = [-3.27782007e+01 -1.93330223e+00  5.65869302e-02  3.66902163e-01
  4.30075618e-01  4.30075618e-01  1.41513490e+00  1.41513490e+00
  1.81929257e+00  3.82910130e+00  3.82910130e+00  7.86729477e+00
  1.19680058e+01  1.19680058e+01  3.42928946e+01  5.13151904e+01
  5.13151904e+01  1.65054972e+02]
B1g nocc = 0
   mo_energy = [ 0.43007562  1.4151349   3.8291013  11.96800584 51.3151904 ]
B2g nocc = 0
   mo_energy = [ 0.43007562  1.4151349   3.8291013  11.96800584 51.3151904 ]
B3g nocc = 0
   mo_energy = [ 0.43007562  1.4151349   3.8291013  11.96800584 51.3151904 ]
Au nocc = 0
   mo_energy = [ 1.84477567  5.22572214 12.77336811]
B1u nocc = 1  HOMO = -0.85112865246611  LUMO = 0.0610493084903582
   mo_energy = [-8.51128652e-01  6.10493085e-02  3.09371459e-01  1.40500869e+00
  1.84477567e+00  1.84477567e+00  5.22572214e+00  5.22572214e+00
  6.04544207e+00  1.27733681e+01  1.27733681e+01  2.95550797e+01
  1.39492208e+02]
B2u nocc = 1  HOMO = -0.85112865246611  LUMO = 0.0610493084903582
   mo_energy = [-8.51128652e-01  6.10493085e-02  3.09371459e-01  1.40500869e+00
  1.84477567e+00  1.84477567e+00  5.22572214e+00  5.22572214e+00
  6.04544207e+00  1.27733681e+01  1.27733681e+01  2.95550797e+01
  1.39492208e+02]
B3u nocc = 1  HOMO = -0.85112865246611  LUMO = 0.0610493084903583
   mo_energy = [-8.51128652e-01  6.10493085e-02  3.09371459e-01  1.40500869e+00
  1.84477567e+00  1.84477567e+00  5.22572214e+00  5.22572214e+00
  6.04544207e+00  1.27733681e+01  1.27733681e+01  2.95550797e+01
  1.39492208e+02]
E1 = -182.53683788430348  E_coul = 54.00353006435289
cycle= 283 E= -128.533307819951  delta_E= 5.68e-14  |g|= 1.77e-13  |ddm|= 1.07e-14
    CPU time for cycle= 283      0.04 sec, wall time      0.01 sec
diis-norm(errvec)=2.44709e-13
Linear dependence found in DIIS error vectors.
diis-c [-2.89052492e-16  1.25000000e-01  1.25000000e-01  1.25000000e-01
  1.25000000e-01  1.25000000e-01  1.25000000e-01  1.25000000e-01
  1.25000000e-01]
HOMO (B2u) = -0.85112865246611  LUMO (Ag) = 0.0565869302137408
irrep_nelec = [4, 0, 0, 0, 0, 2, 2, 2]
Ag nocc = 2  HOMO = -1.93330222955472  LUMO = 0.0565869302137408
   mo_energy = [-3.27782007e+01 -1.93330223e+00  5.65869302e-02  3.66902163e-01
  4.30075618e-01  4.30075618e-01  1.41513490e+00  1.41513490e+00
  1.81929257e+00  3.82910130e+00  3.82910130e+00  7.86729477e+00
  1.19680058e+01  1.19680058e+01  3.42928946e+01  5.13151904e+01
  5.13151904e+01  1.65054972e+02]
B1g nocc = 0
   mo_energy = [ 0.43007562  1.4151349   3.8291013  11.96800584 51.3151904 ]
B2g nocc = 0
   mo_energy = [ 0.43007562  1.4151349   3.8291013  11.96800584 51.3151904 ]
B3g nocc = 0
   mo_energy = [ 0.43007562  1.4151349   3.8291013  11.96800584 51.3151904 ]
Au nocc = 0
   mo_energy = [ 1.84477567  5.22572214 12.77336811]
B1u nocc = 1  HOMO = -0.85112865246611  LUMO = 0.0610493084903584
   mo_energy = [-8.51128652e-01  6.10493085e-02  3.09371459e-01  1.40500869e+00
  1.84477567e+00  1.84477567e+00  5.22572214e+00  5.22572214e+00
  6.04544207e+00  1.27733681e+01  1.27733681e+01  2.95550797e+01
  1.39492208e+02]
B2u nocc = 1  HOMO = -0.85112865246611  LUMO = 0.0610493084903581
   mo_energy = [-8.51128652e-01  6.10493085e-02  3.09371459e-01  1.40500869e+00
  1.84477567e+00  1.84477567e+00  5.22572214e+00  5.22572214e+00
  6.04544207e+00  1.27733681e+01  1.27733681e+01  2.95550797e+01
  1.39492208e+02]
B3u nocc = 1  HOMO = -0.85112865246611  LUMO = 0.0610493084903583
   mo_energy = [-8.51128652e-01  6.10493085e-02  3.09371459e-01  1.40500869e+00
  1.84477567e+00  1.84477567e+00  5.22572214e+00  5.22572214e+00
  6.04544207e+00  1.27733681e+01  1.27733681e+01  2.95550797e+01
  1.39492208e+02]
E1 = -182.53683788430345  E_coul = 54.00353006435282
cycle= 284 E= -128.533307819951  delta_E= -2.84e-14  |g|= 1.02e-13  |ddm|= 6.82e-15
    CPU time for cycle= 284      0.04 sec, wall time      0.01 sec
diis-norm(errvec)=2.36613e-13
Linear dependence found in DIIS error vectors.
diis-c [-2.89052492e-16  1.25000000e-01  1.25000000e-01  1.25000000e-01
  1.25000000e-01  1.25000000e-01  1.25000000e-01  1.25000000e-01
  1.25000000e-01]
HOMO (B2u) = -0.851128652466105  LUMO (Ag) = 0.056586930213715
irrep_nelec = [4, 0, 0, 0, 0, 2, 2, 2]
Ag nocc = 2  HOMO = -1.93330222955472  LUMO = 0.056586930213715
   mo_energy = [-3.27782007e+01 -1.93330223e+00  5.65869302e-02  3.66902163e-01
  4.30075618e-01  4.30075618e-01  1.41513490e+00  1.41513490e+00
  1.81929257e+00  3.82910130e+00  3.82910130e+00  7.86729477e+00
  1.19680058e+01  1.19680058e+01  3.42928946e+01  5.13151904e+01
  5.13151904e+01  1.65054972e+02]
B1g nocc = 0
   mo_energy = [ 0.43007562  1.4151349   3.8291013  11.96800584 51.3151904 ]
B2g nocc = 0
   mo_energy = [ 0.43007562  1.4151349   3.8291013  11.96800584 51.3151904 ]
B3g nocc = 0
   mo_energy = [ 0.43007562  1.4151349   3.8291013  11.96800584 51.3151904 ]
Au nocc = 0
   mo_energy = [ 1.84477567  5.22572214 12.77336811]
B1u nocc = 1  HOMO = -0.85112865246611  LUMO = 0.0610493084903588
   mo_energy = [-8.51128652e-01  6.10493085e-02  3.09371459e-01  1.40500869e+00
  1.84477567e+00  1.84477567e+00  5.22572214e+00  5.22572214e+00
  6.04544207e+00  1.27733681e+01  1.27733681e+01  2.95550797e+01
  1.39492208e+02]
B2u nocc = 1  HOMO = -0.851128652466105  LUMO = 0.0610493084903586
   mo_energy = [-8.51128652e-01  6.10493085e-02  3.09371459e-01  1.40500869e+00
  1.84477567e+00  1.84477567e+00  5.22572214e+00  5.22572214e+00
  6.04544207e+00  1.27733681e+01  1.27733681e+01  2.95550797e+01
  1.39492208e+02]
B3u nocc = 1  HOMO = -0.851128652466109  LUMO = 0.0610493084903581
   mo_energy = [-8.51128652e-01  6.10493085e-02  3.09371459e-01  1.40500869e+00
  1.84477567e+00  1.84477567e+00  5.22572214e+00  5.22572214e+00
  6.04544207e+00  1.27733681e+01  1.27733681e+01  2.95550797e+01
  1.39492208e+02]
E1 = -182.5368378843036  E_coul = 54.003530064352915
cycle= 285 E= -128.533307819951  delta_E= -2.84e-14  |g|= 2.06e-13  |ddm|= 4.57e-14
    CPU time for cycle= 285      0.04 sec, wall time      0.01 sec
diis-norm(errvec)=2.97009e-13
Linear dependence found in DIIS error vectors.
diis-c [-2.89052492e-16  1.25000000e-01  1.25000000e-01  1.25000000e-01
  1.25000000e-01  1.25000000e-01  1.25000000e-01  1.25000000e-01
  1.25000000e-01]
HOMO (B2u) = -0.85112865246611  LUMO (Ag) = 0.0565869302137332
irrep_nelec = [4, 0, 0, 0, 0, 2, 2, 2]
Ag nocc = 2  HOMO = -1.93330222955473  LUMO = 0.0565869302137332
   mo_energy = [-3.27782007e+01 -1.93330223e+00  5.65869302e-02  3.66902163e-01
  4.30075618e-01  4.30075618e-01  1.41513490e+00  1.41513490e+00
  1.81929257e+00  3.82910130e+00  3.82910130e+00  7.86729477e+00
  1.19680058e+01  1.19680058e+01  3.42928946e+01  5.13151904e+01
  5.13151904e+01  1.65054972e+02]
B1g nocc = 0
   mo_energy = [ 0.43007562  1.4151349   3.8291013  11.96800584 51.3151904 ]
B2g nocc = 0
   mo_energy = [ 0.43007562  1.4151349   3.8291013  11.96800584 51.3151904 ]
B3g nocc = 0
   mo_energy = [ 0.43007562  1.4151349   3.8291013  11.96800584 51.3151904 ]
Au nocc = 0
   mo_energy = [ 1.84477567  5.22572214 12.77336811]
B1u nocc = 1  HOMO = -0.851128652466115  LUMO = 0.0610493084903583
   mo_energy = [-8.51128652e-01  6.10493085e-02  3.09371459e-01  1.40500869e+00
  1.84477567e+00  1.84477567e+00  5.22572214e+00  5.22572214e+00
  6.04544207e+00  1.27733681e+01  1.27733681e+01  2.95550797e+01
  1.39492208e+02]
B2u nocc = 1  HOMO = -0.85112865246611  LUMO = 0.0610493084903587
   mo_energy = [-8.51128652e-01  6.10493085e-02  3.09371459e-01  1.40500869e+00
  1.84477567e+00  1.84477567e+00  5.22572214e+00  5.22572214e+00
  6.04544207e+00  1.27733681e+01  1.27733681e+01  2.95550797e+01
  1.39492208e+02]
B3u nocc = 1  HOMO = -0.851128652466113  LUMO = 0.0610493084903585
   mo_energy = [-8.51128652e-01  6.10493085e-02  3.09371459e-01  1.40500869e+00
  1.84477567e+00  1.84477567e+00  5.22572214e+00  5.22572214e+00
  6.04544207e+00  1.27733681e+01  1.27733681e+01  2.95550797e+01
  1.39492208e+02]
E1 = -182.53683788430357  E_coul = 54.003530064352866
cycle= 286 E= -128.533307819951  delta_E= -2.84e-14  |g|= 1.08e-13  |ddm|= 4.4e-14
    CPU time for cycle= 286      0.04 sec, wall time      0.01 sec
diis-norm(errvec)=2.40582e-13
Linear dependence found in DIIS error vectors.
diis-c [-2.89052492e-16  1.25000000e-01  1.25000000e-01  1.25000000e-01
  1.25000000e-01  1.25000000e-01  1.25000000e-01  1.25000000e-01
  1.25000000e-01]
HOMO (B2u) = -0.851128652466109  LUMO (Ag) = 0.0565869302137182
irrep_nelec = [4, 0, 0, 0, 0, 2, 2, 2]
Ag nocc = 2  HOMO = -1.93330222955473  LUMO = 0.0565869302137182
   mo_energy = [-3.27782007e+01 -1.93330223e+00  5.65869302e-02  3.66902163e-01
  4.30075618e-01  4.30075618e-01  1.41513490e+00  1.41513490e+00
  1.81929257e+00  3.82910130e+00  3.82910130e+00  7.86729477e+00
  1.19680058e+01  1.19680058e+01  3.42928946e+01  5.13151904e+01
  5.13151904e+01  1.65054972e+02]
B1g nocc = 0
   mo_energy = [ 0.43007562  1.4151349   3.8291013  11.96800584 51.3151904 ]
B2g nocc = 0
   mo_energy = [ 0.43007562  1.4151349   3.8291013  11.96800584 51.3151904 ]
B3g nocc = 0
   mo_energy = [ 0.43007562  1.4151349   3.8291013  11.96800584 51.3151904 ]
Au nocc = 0
   mo_energy = [ 1.84477567  5.22572214 12.77336811]
B1u nocc = 1  HOMO = -0.85112865246611  LUMO = 0.0610493084903576
   mo_energy = [-8.51128652e-01  6.10493085e-02  3.09371459e-01  1.40500869e+00
  1.84477567e+00  1.84477567e+00  5.22572214e+00  5.22572214e+00
  6.04544207e+00  1.27733681e+01  1.27733681e+01  2.95550797e+01
  1.39492208e+02]
B2u nocc = 1  HOMO = -0.851128652466109  LUMO = 0.0610493084903578
   mo_energy = [-8.51128652e-01  6.10493085e-02  3.09371459e-01  1.40500869e+00
  1.84477567e+00  1.84477567e+00  5.22572214e+00  5.22572214e+00
  6.04544207e+00  1.27733681e+01  1.27733681e+01  2.95550797e+01
  1.39492208e+02]
B3u nocc = 1  HOMO = -0.851128652466112  LUMO = 0.0610493084903576
   mo_energy = [-8.51128652e-01  6.10493085e-02  3.09371459e-01  1.40500869e+00
  1.84477567e+00  1.84477567e+00  5.22572214e+00  5.22572214e+00
  6.04544207e+00  1.27733681e+01  1.27733681e+01  2.95550797e+01
  1.39492208e+02]
E1 = -182.5368378843035  E_coul = 54.00353006435291
cycle= 287 E= -128.533307819951  delta_E= 8.53e-14  |g|= 1.44e-13  |ddm|= 4.71e-14
    CPU time for cycle= 287      0.05 sec, wall time      0.01 sec
diis-norm(errvec)=2.97504e-13
Linear dependence found in DIIS error vectors.
diis-c [-2.89052492e-16  1.25000000e-01  1.25000000e-01  1.25000000e-01
  1.25000000e-01  1.25000000e-01  1.25000000e-01  1.25000000e-01
  1.25000000e-01]
HOMO (B2u) = -0.851128652466108  LUMO (Ag) = 0.0565869302137543
irrep_nelec = [4, 0, 0, 0, 0, 2, 2, 2]
Ag nocc = 2  HOMO = -1.93330222955472  LUMO = 0.0565869302137543
   mo_energy = [-3.27782007e+01 -1.93330223e+00  5.65869302e-02  3.66902163e-01
  4.30075618e-01  4.30075618e-01  1.41513490e+00  1.41513490e+00
  1.81929257e+00  3.82910130e+00  3.82910130e+00  7.86729477e+00
  1.19680058e+01  1.19680058e+01  3.42928946e+01  5.13151904e+01
  5.13151904e+01  1.65054972e+02]
B1g nocc = 0
   mo_energy = [ 0.43007562  1.4151349   3.8291013  11.96800584 51.3151904 ]
B2g nocc = 0
   mo_energy = [ 0.43007562  1.4151349   3.8291013  11.96800584 51.3151904 ]
B3g nocc = 0
   mo_energy = [ 0.43007562  1.4151349   3.8291013  11.96800584 51.3151904 ]
Au nocc = 0
   mo_energy = [ 1.84477567  5.22572214 12.77336811]
B1u nocc = 1  HOMO = -0.851128652466113  LUMO = 0.0610493084903581
   mo_energy = [-8.51128652e-01  6.10493085e-02  3.09371459e-01  1.40500869e+00
  1.84477567e+00  1.84477567e+00  5.22572214e+00  5.22572214e+00
  6.04544207e+00  1.27733681e+01  1.27733681e+01  2.95550797e+01
  1.39492208e+02]
B2u nocc = 1  HOMO = -0.851128652466108  LUMO = 0.0610493084903574
   mo_energy = [-8.51128652e-01  6.10493085e-02  3.09371459e-01  1.40500869e+00
  1.84477567e+00  1.84477567e+00  5.22572214e+00  5.22572214e+00
  6.04544207e+00  1.27733681e+01  1.27733681e+01  2.95550797e+01
  1.39492208e+02]
B3u nocc = 1  HOMO = -0.851128652466111  LUMO = 0.0610493084903578
   mo_energy = [-8.51128652e-01  6.10493085e-02  3.09371459e-01  1.40500869e+00
  1.84477567e+00  1.84477567e+00  5.22572214e+00  5.22572214e+00
  6.04544207e+00  1.27733681e+01  1.27733681e+01  2.95550797e+01
  1.39492208e+02]
E1 = -182.53683788430354  E_coul = 54.00353006435293
cycle= 288 E= -128.533307819951  delta_E=    0  |g|= 2.97e-13  |ddm|= 9.99e-15
    CPU time for cycle= 288      0.05 sec, wall time      0.01 sec
HOMO (B2u) = -0.851128652466106  LUMO (Ag) = 0.0565869302137433
irrep_nelec = [4, 0, 0, 0, 0, 2, 2, 2]
Ag nocc = 2  HOMO = -1.93330222955471  LUMO = 0.0565869302137433
   mo_energy = [-3.27782007e+01 -1.93330223e+00  5.65869302e-02  3.66902163e-01
  4.30075618e-01  4.30075618e-01  1.41513490e+00  1.41513490e+00
  1.81929257e+00  3.82910130e+00  3.82910130e+00  7.86729477e+00
  1.19680058e+01  1.19680058e+01  3.42928946e+01  5.13151904e+01
  5.13151904e+01  1.65054972e+02]
B1g nocc = 0
   mo_energy = [ 0.43007562  1.4151349   3.8291013  11.96800584 51.3151904 ]
B2g nocc = 0
   mo_energy = [ 0.43007562  1.4151349   3.8291013  11.96800584 51.3151904 ]
B3g nocc = 0
   mo_energy = [ 0.43007562  1.4151349   3.8291013  11.96800584 51.3151904 ]
Au nocc = 0
   mo_energy = [ 1.84477567  5.22572214 12.77336811]
B1u nocc = 1  HOMO = -0.851128652466107  LUMO = 0.0610493084903589
   mo_energy = [-8.51128652e-01  6.10493085e-02  3.09371459e-01  1.40500869e+00
  1.84477567e+00  1.84477567e+00  5.22572214e+00  5.22572214e+00
  6.04544207e+00  1.27733681e+01  1.27733681e+01  2.95550797e+01
  1.39492208e+02]
B2u nocc = 1  HOMO = -0.851128652466106  LUMO = 0.0610493084903599
   mo_energy = [-8.51128652e-01  6.10493085e-02  3.09371459e-01  1.40500869e+00
  1.84477567e+00  1.84477567e+00  5.22572214e+00  5.22572214e+00
  6.04544207e+00  1.27733681e+01  1.27733681e+01  2.95550797e+01
  1.39492208e+02]
B3u nocc = 1  HOMO = -0.851128652466111  LUMO = 0.0610493084903592
   mo_energy = [-8.51128652e-01  6.10493085e-02  3.09371459e-01  1.40500869e+00
  1.84477567e+00  1.84477567e+00  5.22572214e+00  5.22572214e+00
  6.04544207e+00  1.27733681e+01  1.27733681e+01  2.95550797e+01
  1.39492208e+02]
E1 = -182.53683788430365  E_coul = 54.00353006435296
Extra cycle  E= -128.533307819951  delta_E= -8.53e-14  |g|= 1.53e-13  |ddm|= 9.99e-15
    CPU time for scf_cycle     11.92 sec, wall time      3.16 sec
    CPU time for SCF     11.92 sec, wall time      3.19 sec
converged SCF energy = -128.533307819951
