 **********************************************************************
                          MRCC program system
 **********************************************************************
 
                              Written by
     Mihaly Kallay, Peter R. Nagy, David Mester, Laszlo Gyevi-Nagy,
        Jozsef Csoka, P. Bernat Szabo, Zoltan Rolik, Gyula Samu,
     Jozsef Csontos, Bence Hegely, Adam Ganyecz, Istvan Ladjanszki,
       Lorant Szegedy, Bence Ladoczki, Klara Petrov, Mate Farkas,
                    Pal D. Mezei, and Reka A. Horvath
 
        Department of Physical Chemistry and Materials Science
            Budapest University of Technology and Economics
                  Budapest P.O.Box 91, H-1521 Hungary
 
                              www.mrcc.hu
 
                     Release date: August 28, 2023

 ************************ 2025-02-16 19:05:44 *************************
 Executing minp...

 Reading input from MINP...
 
 Input file:
 
basis=aCV5Z-EMSL
iface=cfour
uncontract=off
calc=CC(5)
ccprog=mrcc
mem=1950GB
core=corr
itol=18
scftol=13
cctol=6
ccmaxit=999
scfmaxit=9999
scfiguess=ao
scftype=UHF
#rohftype=semicanonical
rest=2
charge=+0
mult=3
refdet=serialno
1-3
4,5

symm=2
occ=2,0,0,0,0,1,1,1/2,0,0,0,0,0,0,1
geom
O

#Li 1 R
#R=3.065

#unit=angstroms

tprint=0.01
verbosity=3
#nstate=4
 
 
 Checking keyword combinations...
 
 Keywords:
 
 active=none
 agrid=ld0006-ld0590
 agrid_pssp=ld0006-ld0194
 agrid_pssp_sm=ld0006-ld0074
 basis=acv5z-emsl
 basis_sm=none
 basopt=off
 bfbasis=none
 bfgsmem=10
 bfgstol=1.0d-3
 boysalg=jacobi
 bpcompo=0.985
 bpcompv=0.98
 bpdfo=0.985
 bpocc=0.985
 bppdo=0.985
 bppdv=0.98
 bpedo=0.985
 bpedv=0.98
 calc=cc(5)
 ccmaxit=999
 ccprog=mrcc
 ccsdalg=disk
 ccsdmkl=seq
 ccsdrest=off
 ccsdthreads=2
 cctol=6
 charge=+0
 cialg=disk
 ciguess=off
 cmpgrp=auto
 comprest=off
 coord_sys=ric
 core=corr
 corembed=off
 csapprox=off
 cvs=off
 dboc=off
 delocsomofact=
 dendec=cholesky
 dens=0
 denscorr=0
 dfalg=lineq
 dfbasis_cab=none
 dfbasis_cor=none
 dfbasis_scf=none
 dfbasis_scf_sm=none
 dfintran=ovirt
 dft=off
 dhexc=adc(2)
 diag=david
 docc=
 domrad=10.d0
 drpaalg=fit
 dual=off
 dual_df=off
 ecp=auto
 edisp=off
 edisp_embed=off
 embed=off
 epairestfact=off
 epairscale=1.d0
 etemp=300
 epert=none
 eps=
 espcharge=off
 excrad=0.d0
 excrad_fin=0.000000000D+00
 fitting=coulomb
 fmm=off
 fmmord=8
 fnonorb=
 freq=off
 gamma=1.d0
 gauss=spher
 geom=zmat
 gopt=off
 ghost=none
 gtol=7
 grdens=off
 grid=auto
 grid_sm=auto
 gridbatch_cos=2000
 grtol=10
 guido_ct=off
 hamilton=dc
 iface=cfour
 intalg=auto
 ip_ea=off
 itol=18
 laptol=1.d-2
 lccoporder=trffirst
 lcorthr=normal
 lccrest=off
 ldfgrad_tol=8
 lmp2dens=on
 lnoepso=0.d0
 lnoepsv=1e-6
 localcc=off
 localcorrsymm=off
 locintrf=disk
 mact=
 maxact=off
 maxdim=200
 maxex=0
 maxmicroit=100
 mcscfiguess=hf
 mem=1950gb
 mmprog=
 molden=on
 mpitasks=1
 mulmet=0
 mult=3
 nab=off
 nacto=0
 nactv=0
 naf_amp=3.16d-3
 naf_cor=off
 naf_f12=off
 naf_scf=off
 nafalg=albe
 nafdens=off
 naftyp=
 nchol=auto
 ndeps=1e-3
 nstate=1
 nsing=0
 nto=off
 ntrip=0
 num_grad=off
 occ=2,0,0,0,0,1,1,1/2,0,0,0,0,0,0,1
 occri=off
 oniom=off
 oniom_eechg=off
 oniom_pcm=off
 oniom_qcorr=off
 optalg=
 optmaxit=50
 optetol=1e-6
 optex=0
 optgtol=1e-4
 optstol=1e-3
 orblocc=off
 orbloce=off
 orbloco=off
 orblocv=off
 orblocguess=cholesky
 osveps=1e-3
 ovirt=off
 ovltol=1e-7
 ovosnorb=80.0
 pao_subsys_tol=1e-3
 pcm=off
 popul=off
 pressure=100000
 pssp=off
 ptfreq=0.0
 ptthreads=2
 qmreg=
 qmmm=off
 qro=off
 qscf=off
 redcost_exc=off
 redcost_tddft=off
 refdet=serialno
 rest=2
 rgrid=log3
 rism=off
 rohfcore=semicanonical
 rohftype=standard
 scfalg=auto
 scf_conv=auto
 scfdamp=0.0d0
 scfdamp_mode=off
 scfdamp_end=9999
 scfdamp_dampstep=0.d0
 scfdamp_dtol=0.0d0
 scfdamp_maxfact=0.0d0
 scfdamp_minfact=0.0d0
 scfdiis=on
 scfdiis_dtol=0.0d0
 scfdiis_end=9999
 scfdiis_start=2
 scfdiis_step=1
 scfdiis_watch=off
 scfdiis_wrange=10
 scfdiis_wlimit=5
 scfdiis_delmax=2
 scfdtol=14
 scfext=10
 scfguessdens=
 scfiguess=ao
 scfloc=off
 scflshift=0.20
 scflshift_end=8
 scflshift_dtol=0.0
 scflshift_gaptol=0.20
 scfmaxit=9999
 scftype=uhf
 scftol=13
 scspe=1.d0
 scsph=1.d0
 scsps=1.2d0
 scsps_t=1.2d0
 scspt=0.33333333333333
 scspt_t=0.33333333333333
 scspv=1.d0
 spairtol=1e-4
 sqmprog=
 subminp=top
 symm=2
 talg=occ
 temp=298.15
 test=off
 theodore=off
 tlmo=0.999
 tpao=0.94
 tprint=0.01
 uncontract=off
 unit=angs
 usedisk=2
 verbosity=3
 wpairtol=0.100000000E-05

 ************************ 2025-02-16 19:05:45 *************************
 Executing goldstone...

 Generation of CC equations in terms of H and T...
 Generation of antisymmetrized Goldstone diagrams...
 Number of diagrams in T^1 equations:    15
 Number of diagrams in T^2 equations:    38
 Number of diagrams in T^3 equations:    54
 Number of diagrams in T^4 equations:    80
 Number of diagrams in T^5 equations:    99
 Translation of diagrams to factorized equations...
 Optimizing intermediate calculation...
 Number of floating-point operations per iteration step:   2.3441E+16
 Probable CPU time per iteration step (hours):       234407.41
 Required memory (Mbytes):       7283507.6
 Number of intermediates:                                 141
 Number of intermediates to be stored:                     56
 Length of intermediate file (Mbytes):         59689.9

 ************************ 2025-02-16 19:05:45 *************************
 Executing xmrcc...

 **********************************************************************
 CC(                     5 ) calculation 
 
 
 Allocation of      1996800.0 Mbytes of memory...
 Number of spinorbitals:                   362
 Number of alpha electrons:                        5
 Number of beta electrons:                         3
 Spin multiplicity:                     2
 z-component of spin:  1.0
 Spatial symmetry:                      2
 Convergence criterion:  1.0E-06
 Construction of occupation graphs...
 Number of                     0 -fold excitations:                      1
 Number of                     1 -fold excitations:                    256
 Number of                     2 -fold excitations:                  88651
 Number of                     3 -fold excitations:               16793170
 Number of                     4 -fold excitations:             1631882701
 Number of                     5 -fold excitations:            83607679050
 Total number of configurations:            85256443829
 Calculation of coupling coefficients...
 Length of intermediate file (Mbytes):         37793.8
 
 ======================================================================
 
 Memory requirements /Mbyte/: 
               Minimal        Optimal
 Real*8:   15230439.9640  15230439.9640
 Integer:    830640.2080
 Total:    16061080.1719  16061080.1719
 

 ************************ 2025-02-17 01:44:38 *************************
 Executing goldstone...

 Generation of MRCC equations in terms of H and T...
 Generation of antisymmetrized Goldstone diagrams...
 Number of diagrams in T^1 equations:    15
 Number of diagrams in T^2 equations:    38
 Number of diagrams in T^3 equations:    54
 Number of diagrams in T^4 equations:    80
 Number of diagrams in T^5 equations:    99
 Translation of diagrams to factorized equations...
 Number of restricted diagrams in T^1 equations:     30
 Number of restricted diagrams in T^2 equations:    129
 Number of restricted diagrams in T^3 equations:    306
 Number of restricted diagrams in T^4 equations:    669
 Number of restricted diagrams in T^5 equations:   1238
 Optimizing intermediate calculation...
 Number of floating-point operations per iteration step:   1.2312E+16
 Probable CPU time per iteration step (hours):       123117.37
 Required memory (Mbytes):        760200.5
 Number of intermediates:                                 682
 Number of intermediates to be stored:                    237
 Length of intermediate file (Mbytes):        778257.1

 ************************ 2025-02-17 01:44:39 *************************
 Executing xmrcc...

 **********************************************************************
 MRCC(                     5 ) calculation 
 
 
 Allocation of      1996800.0 Mbytes of memory...
 Number of spinorbitals:                   362
 Number of alpha electrons:                        5
 Number of beta electrons:                         3
 Number of active particles:                   178
 Number of active holes:                         0
 Spin multiplicity:                     2
 z-component of spin:  1.0
 Spatial symmetry:                      2
 Convergence criterion:  1.0E-06
 Construction of occupation graphs...
 Number of                     0 -fold excitations:                      1
 Number of                     1 -fold excitations:                    256
 Number of                     2 -fold excitations:                  88651
 Number of                     3 -fold excitations:               16793170
 Number of                     4 -fold excitations:             1631882701
 Number of                     5 -fold excitations:            83607679050
 Total number of configurations:            85256443829
 Calculation of coupling coefficients...
 Length of intermediate file (Mbytes):        517305.4
 
 ======================================================================
 
 Memory requirements /Mbyte/: 
               Minimal        Optimal
 Real*8:    1003653.3868   1003653.3868
 Integer:    835708.6917
 Total:     1839362.0785   1839362.0785
 

 ************************ 2025-02-17 11:30:42 *************************
 Executing goldstone...

 Generation of MRCC equations in terms of H and T...
 Generation of antisymmetrized Goldstone diagrams...
 Number of diagrams in T^1 equations:    15
 Number of diagrams in T^2 equations:    34
 Number of diagrams in T^3 equations:     2
 Translation of diagrams to factorized equations...
 Number of restricted diagrams in T^1 equations:     78
 Number of restricted diagrams in T^2 equations:    299
 Number of restricted diagrams in T^3 equations:     18
 Optimizing intermediate calculation...
 Number of floating-point operations per iteration step:   2.6115E+10
 Probable CPU time per iteration step (hours):            0.26
 Required memory (Mbytes):        128002.5
 Number of intermediates:                                 239
 Number of intermediates to be stored:                    105
 Length of intermediate file (Mbytes):          2046.2

 ************************ 2025-02-17 11:30:42 *************************
 Executing xmrcc...

 **********************************************************************
 MRCC(                     3 ) calculation 
 
 
 Allocation of      1996800.0 Mbytes of memory...
 Number of spinorbitals:                   362
 Number of alpha electrons:                        5
 Number of beta electrons:                         3
 Number of active particles:                   178
 Number of active holes:                         0
 Spin multiplicity:                     2
 z-component of spin:  1.0
 Spatial symmetry:                      2
 Convergence criterion:  1.0E-06
 Construction of occupation graphs...
 Number of                     0 -fold excitations:                      1
 Number of                     1 -fold excitations:                    256
 Number of                     2 -fold excitations:                  88651
 Total number of configurations:                  88908
 Calculation of coupling coefficients...
 Length of intermediate file (Mbytes):          1550.6
 
 ======================================================================
 
 Spin case  1   Alpha:  0   Beta:  3
 Number of excitations:                  14214
 Spin case  2   Alpha:  1   Beta:  2
 Number of excitations:                 658342
 Spin case  3   Alpha:  2   Beta:  1
 Number of excitations:                1311502
 Spin case  4   Alpha:  3   Beta:  0
 Number of excitations:                 141810
 Spin case  5   Alpha:  0   Beta:  3
 Number of excitations:                  43870
 Spin case  6   Alpha:  1   Beta:  2
 Number of excitations:                 643630
 Spin case  7   Alpha:  1   Beta:  2
 Number of excitations:                1334397
 Spin case  8   Alpha:  2   Beta:  1
 Number of excitations:                2596232
 Spin case  9   Alpha:  2   Beta:  1
 Number of excitations:                1311630
 Spin case 10   Alpha:  3   Beta:  0
 Number of excitations:                 424034
 Spin case 11   Alpha:  0   Beta:  3
 Number of excitations:                  43773
 Spin case 12   Alpha:  1   Beta:  2
 Number of excitations:                1304700
 Spin case 13   Alpha:  1   Beta:  2
 Number of excitations:                 658061
 Spin case 14   Alpha:  2   Beta:  1
 Number of excitations:                1253109
 Spin case 15   Alpha:  2   Beta:  1
 Number of excitations:                2596407
 Spin case 16   Alpha:  3   Beta:  0
 Number of excitations:                 414317
 Spin case 17   Alpha:  0   Beta:  3
 Number of excitations:                  14205
 Spin case 18   Alpha:  1   Beta:  2
 Number of excitations:                 643343
 Spin case 19   Alpha:  2   Beta:  1
 Number of excitations:                1253238
 Spin case 20   Alpha:  3   Beta:  0
 Number of excitations:                 132356
 Number of                     3 -fold excitations:               16793170
 
 Memory requirements /Mbyte/: 
               Minimal        Optimal
 Real*8:        122.7724      8189.5057
 Integer:       408.2163
 Total:         530.9887      8597.7220
 

 ************************ 2025-02-17 11:31:04 *************************
 Executing mrcc...

 **********************************************************************
 CCSD(T) calculation                                                    
 
 
 OpenMP parallel version is running.
 Number of CPU cores:  12
 Allocation of         8189.5 Mbytes of memory...
 Number of spinorbitals: 362
 Number of alpha electrons:  5
 Number of beta  electrons:  3
 Number of active particles:                   178
 Number of active holes:                         0
 Spin multiplicity: 3
 z-component of spin:  1.0
 Spatial symmetry: 2
 Convergence criterion:  1.0E-06
 Construction of occupation graphs...
 Number of 0-fold excitations: 1
 Number of 1-fold excitations: 256
 Number of 2-fold excitations: 88651
 Total number of determinants: 88908
 Calculation of coupling coefficients...
 Initial cluster amplitudes are generated.
 Length of intermediate file (Mbytes):          1550.6
 Reading integral list from unit 55...
 Sorting integrals...
 Sorting integrals...
 Sorting integrals...
 Sorting integrals...
 Energy of reference determinant [au]:     -74.601446337662
 Calculation of MP denominators...
 
 Starting CC iteration...
 ======================================================================
 Norm of residual vector:     3.32181833
 CPU time [min]:    14.103                   Wall time [min]:     5.232
 
 Iteration  1  CC energy:   -74.96893016  Energy decrease:   0.36748383
 ======================================================================
 Norm of residual vector:     0.55918859
 CPU time [min]:    19.443                   Wall time [min]:     6.198
 
 Iteration  2  CC energy:   -75.02717521  Energy decrease:   0.05824504
 ======================================================================
 Norm of residual vector:     0.16944137
 CPU time [min]:    24.486                   Wall time [min]:     7.093
 
 Iteration  3  CC energy:   -75.06987426  Energy decrease:   0.04269905
 ======================================================================
 Norm of residual vector:     0.07138788
 CPU time [min]:    29.933                   Wall time [min]:     8.081
 
 Iteration  4  CC energy:   -75.04713057  Energy decrease:   0.02274368
 ======================================================================
 Norm of residual vector:     0.02958575
 CPU time [min]:    34.992                   Wall time [min]:     8.994
 
 Iteration  5  CC energy:   -75.05692914  Energy decrease:   0.00979856
 ======================================================================
 Norm of residual vector:     0.00846080
 CPU time [min]:    40.018                   Wall time [min]:     9.889
 
 Iteration  6  CC energy:   -75.05686428  Energy decrease:   0.00006485
 ======================================================================
 Norm of residual vector:     0.00367163
 CPU time [min]:    45.101                   Wall time [min]:    10.788
 
 Iteration  7  CC energy:   -75.05779190  Energy decrease:   0.00092762
 ======================================================================
 Norm of residual vector:     0.00147976
 CPU time [min]:    50.223                   Wall time [min]:    11.688
 
 Iteration  8  CC energy:   -75.05738842  Energy decrease:   0.00040348
 ======================================================================
 Norm of residual vector:     0.00054074
 CPU time [min]:    54.931                   Wall time [min]:    12.555
 
 Iteration  9  CC energy:   -75.05751694  Energy decrease:   0.00012852
 ======================================================================
 Norm of residual vector:     0.00018036
 CPU time [min]:    60.147                   Wall time [min]:    13.451
 
 Iteration 10  CC energy:   -75.05748927  Energy decrease:   0.00002767
 ======================================================================
 Norm of residual vector:     0.00004810
 CPU time [min]:    65.127                   Wall time [min]:    14.338
 
 Iteration 11  CC energy:   -75.05748570  Energy decrease:   0.00000357
 ======================================================================
 Norm of residual vector:     0.00001835
 CPU time [min]:    70.148                   Wall time [min]:    15.213
 
 Iteration 12  CC energy:   -75.05748867  Energy decrease:   0.00000297
 ======================================================================
 Norm of residual vector:     0.00000481
 CPU time [min]:    75.102                   Wall time [min]:    16.111
 
 Iteration 13  CC energy:   -75.05748852  Energy decrease:   0.00000015
 ======================================================================
 Norm of residual vector:     0.00000126
 CPU time [min]:    80.322                   Wall time [min]:    17.069
 
 Iteration 14  CC energy:   -75.05748848  Energy decrease:   0.00000004
 ======================================================================
 Norm of residual vector:     0.00000038
 CPU time [min]:    85.442                   Wall time [min]:    17.978
 
 Iteration 15  CC energy:   -75.05748848  Energy decrease:   9.8389E-10
 ======================================================================
 
 Iteration has converged in 15 steps.
 
 Final results:
 Total CCSD energy [au]:                      -75.057488484353
 
 Perturbative corrections are calculated...
 ======================================================================
 Spin case  1   Alpha:  0   Beta:  3
 Number of excitations:        14214
 CPU time [min]:    85.610                   Wall time [min]:    18.008
 ======================================================================
 Spin case  2   Alpha:  1   Beta:  2
 Number of excitations:        658342
 CPU time [min]:    86.162                   Wall time [min]:    18.060
 ======================================================================
 Spin case  3   Alpha:  2   Beta:  1
 Number of excitations:        1311502
 CPU time [min]:    86.899                   Wall time [min]:    18.125
 ======================================================================
 Spin case  4   Alpha:  3   Beta:  0
 Number of excitations:        141810
 CPU time [min]:    87.078                   Wall time [min]:    18.141
 ======================================================================
 Spin case  5   Alpha:  0   Beta:  3
 Number of excitations:        43870
 CPU time [min]:    87.302                   Wall time [min]:    18.159
 ======================================================================
 Spin case  6   Alpha:  1   Beta:  2
 Number of excitations:        643630
 CPU time [min]:    87.835                   Wall time [min]:    18.208
 ======================================================================
 Spin case  7   Alpha:  1   Beta:  2
 Number of excitations:        1334397
 CPU time [min]:    88.798                   Wall time [min]:    18.298
 ======================================================================
 Spin case  8   Alpha:  2   Beta:  1
 Number of excitations:        2596232
 CPU time [min]:    90.252                   Wall time [min]:    18.437
 ======================================================================
 Spin case  9   Alpha:  2   Beta:  1
 Number of excitations:        1311630
 CPU time [min]:    91.130                   Wall time [min]:    18.527
 ======================================================================
 Spin case 10   Alpha:  3   Beta:  0
 Number of excitations:        424034
 CPU time [min]:    91.668                   Wall time [min]:    18.580
 ======================================================================
 Spin case 11   Alpha:  0   Beta:  3
 Number of excitations:        43773
 CPU time [min]:    91.956                   Wall time [min]:    18.610
 ======================================================================
 Spin case 12   Alpha:  1   Beta:  2
 Number of excitations:        1304700
 CPU time [min]:    92.928                   Wall time [min]:    18.709
 ======================================================================
 Spin case 13   Alpha:  1   Beta:  2
 Number of excitations:        658061
 CPU time [min]:    93.573                   Wall time [min]:    18.766
 ======================================================================
 Spin case 14   Alpha:  2   Beta:  1
 Number of excitations:        1253109
 CPU time [min]:    94.288                   Wall time [min]:    18.833
 ======================================================================
 Spin case 15   Alpha:  2   Beta:  1
 Number of excitations:        2596407
 CPU time [min]:    95.653                   Wall time [min]:    18.972
 ======================================================================
 Spin case 16   Alpha:  3   Beta:  0
 Number of excitations:        414317
 CPU time [min]:    96.245                   Wall time [min]:    19.025
 ======================================================================
 Spin case 17   Alpha:  0   Beta:  3
 Number of excitations:        14205
 CPU time [min]:    96.344                   Wall time [min]:    19.033
 ======================================================================
 Spin case 18   Alpha:  1   Beta:  2
 Number of excitations:        643343
 CPU time [min]:    96.875                   Wall time [min]:    19.084
 ======================================================================
 Spin case 19   Alpha:  2   Beta:  1
 Number of excitations:        1253238
 CPU time [min]:    97.587                   Wall time [min]:    19.154
 ======================================================================
 Spin case 20   Alpha:  3   Beta:  0
 Number of excitations:        132356
 CPU time [min]:    97.826                   Wall time [min]:    19.176
 ======================================================================
 Number of 3-fold excitations: 16793170
 
 
 CPU time [min]:    97.828                   Wall time [min]:    19.176
 
 Total CCSD[T] energy [au]:                   -75.063204887595
 Total CCSD(T) energy [au]:                   -75.058937449467
 
 Dominant cluster amplitudes
 Printing threshold:  1.00E-02
 
    1.000000  Reference determinant                                     
   -0.019612  2b -> 14b                                                 
   -0.011206  2b -> 18b                                                 
   -0.031858  2b -> 26b                                                 
    0.012467  2b -> 30b                                                 
   -0.020037  2b -> 51b                                                 
   -0.869696  3b -> 6b                                                  
   -0.363313  3b -> 15b                                                 
   -0.114828  3b -> 31b                                                 
   -0.025549  3b -> 56b                                                 
    0.020923  2a -> 30a                                                 
    0.018401  2a -> 55a                                                 
    0.012525  3a -> 6a                                                  
    0.010405  3a -> 15a                                                 
    0.012713  3a -> 48a                                                 
   -0.013116  4a -> 32a                                                 
   -0.018722  5a -> 8a                                                  
   -0.034779  5a -> 17a                                                 
   -0.024264  5a -> 33a                                                 
    0.013699  5a -> 50a                                                 
    0.011666  2b 3b -> 27b 4b                                           
    0.010819  4a 3b -> 15a 4b                                           
   -0.015098  3a 2b -> 27a 4b                                           
   -0.011624  3a 2b -> 52a 4b                                           
    0.015225  4a 2b -> 26a 4b                                           
    0.011654  4a 2b -> 51a 4b                                           
   -0.015586  5a 2b -> 28a 4b                                           
   -0.012077  5a 2b -> 53a 4b                                           
   -0.011148  2b 3b -> 5b 13b                                           
    0.013478  2b 3b -> 15b 18b                                          
    0.012375  2b 3b -> 7b 27b                                           
   -0.018682  2b 3b -> 5b 29b                                           
   -0.011072  2b 3b -> 18b 31b                                          
   -0.012211  2b 3b -> 5b 54b                                           
   -0.011505  2a 2b -> 18a 18b                                          
   -0.013194  3a 3b -> 18a 18b                                          
   -0.016668  3a 3b -> 26a 30b                                          
   -0.010862  3a 3b -> 51a 30b                                          
   -0.012031  3a 3b -> 26a 55b                                          
   -0.013255  3a 3b -> 51a 55b                                          
   -0.016771  3a 3b -> 29a 29b                                          
   -0.011169  3a 3b -> 54a 29b                                          
   -0.011815  3a 3b -> 29a 54b                                          
   -0.013260  3a 3b -> 54a 54b                                          
   -0.016724  3a 3b -> 27a 27b                                          
   -0.010905  3a 3b -> 52a 27b                                          
   -0.012093  3a 3b -> 27a 52b                                          
   -0.013276  3a 3b -> 52a 52b                                          
   -0.010070  3a 3b -> 6a 6b                                            
   -0.019506  3a 3b -> 15a 6b                                           
   -0.013782  3a 3b -> 31a 6b                                           
   -0.019780  3a 3b -> 6a 15b                                           
   -0.040590  3a 3b -> 15a 15b                                          
   -0.032477  3a 3b -> 31a 15b                                          
   -0.014633  3a 3b -> 6a 31b                                           
   -0.033399  3a 3b -> 15a 31b                                          
   -0.035256  3a 3b -> 31a 31b                                          
   -0.013889  3a 3b -> 56a 31b                                          
   -0.014437  3a 3b -> 31a 56b                                          
   -0.012516  3a 3b -> 56a 56b                                          
    0.013124  2a 2b -> 17a 5b                                           
    0.012034  3a 3b -> 17a 5b                                           
   -0.011988  5a 3b -> 30a 29b                                          
   -0.011725  5a 3b -> 28a 27b                                          
   -0.011677  5a 3b -> 29a 30b                                          
    0.013632  5a 3b -> 6a 5b                                            
    0.019769  5a 3b -> 15a 5b                                           
   -0.010143  5a 3b -> 48a 5b                                           
   -0.014282  5a 3b -> 17a 6b                                           
   -0.011151  5a 3b -> 33a 6b                                           
   -0.012822  5a 3b -> 8a 15b                                           
   -0.028904  5a 3b -> 17a 15b                                          
   -0.025186  5a 3b -> 33a 15b                                          
   -0.023196  5a 3b -> 17a 31b                                          
   -0.025742  5a 3b -> 33a 31b                                          
   -0.010990  5a 3b -> 58a 31b                                          
   -0.010855  5a 3b -> 33a 56b                                          
   -0.011722  4a 3b -> 28a 29b                                          
   -0.012594  4a 3b -> 15a 7b                                           
   -0.010979  4a 3b -> 15a 16b                                          
   -0.014164  4a 3b -> 16a 6b                                           
   -0.010851  4a 3b -> 32a 6b                                           
   -0.013257  4a 3b -> 7a 15b                                           
   -0.028798  4a 3b -> 16a 15b                                          
   -0.024635  4a 3b -> 32a 15b                                          
   -0.023309  4a 3b -> 16a 31b                                          
   -0.025375  4a 3b -> 32a 31b                                          
   -0.010870  4a 3b -> 57a 31b                                          
   -0.010799  4a 3b -> 32a 56b                                          
   -0.010318  2a 3b -> 18a 6b                                           
   -0.014152  2a 3b -> 9a 15b                                           
   -0.023097  2a 3b -> 18a 15b                                          
    0.014114  2a 3b -> 43a 15b                                          
   -0.012134  2a 3b -> 9a 31b                                           
   -0.022344  2a 3b -> 18a 31b                                          
    0.018183  2a 3b -> 43a 31b                                          
    0.010122  2a 3b -> 43a 56b                                          
   -0.014231  2a 3b -> 29a 5b                                           
   -0.013815  2a 3b -> 54a 5b                                           
   -0.010626  3a 2b -> 13a 5b                                           
   -0.024042  3a 2b -> 29a 5b                                           
   -0.019832  3a 2b -> 54a 5b                                           
    0.016011  3a 2b -> 27a 7b                                           
    0.012891  3a 2b -> 52a 7b                                           
    0.010369  3a 2b -> 27a 16b                                          
   -0.013093  3a 2b -> 15a 18b                                          
   -0.013985  3a 2b -> 31a 18b                                          
    0.011803  3a 2b -> 31a 43b                                          
   -0.016163  4a 2b -> 26a 7b                                           
   -0.012914  4a 2b -> 51a 7b                                           
   -0.010528  4a 2b -> 26a 16b                                          
   -0.010917  4a 2b -> 12a 5b                                           
   -0.024814  4a 2b -> 28a 5b                                           
   -0.020349  4a 2b -> 53a 5b                                           
   -0.012636  4a 2b -> 16a 18b                                          
   -0.013964  4a 2b -> 32a 18b                                          
    0.011798  4a 2b -> 32a 43b                                          
    0.010609  5a 2b -> 9a 5b                                            
   -0.012591  5a 2b -> 14a 5b                                           
    0.013458  5a 2b -> 18a 5b                                           
   -0.028211  5a 2b -> 30a 5b                                           
   -0.023435  5a 2b -> 55a 5b                                           
    0.016533  5a 2b -> 28a 7b                                           
    0.013370  5a 2b -> 53a 7b                                           
    0.010745  5a 2b -> 28a 16b                                          
    0.010241  5a 2b -> 53a 16b                                          
   -0.012628  5a 2b -> 17a 18b                                          
   -0.014217  5a 2b -> 33a 18b                                          
    0.011990  5a 2b -> 33a 43b                                          
   -0.011166  4a 5a -> 16a 17a                                          
    0.011098  4a 5a -> 17a 32a                                          
   -0.011397  4a 5a -> 16a 33a                                          
   -0.013440  4a 5a -> 32a 33a                                          
   -0.011293  3a 5a -> 15a 17a                                          
   -0.010225  3a 5a -> 29a 30a                                          
    0.010598  3a 5a -> 17a 31a                                          
   -0.011529  3a 5a -> 15a 33a                                          
   -0.012983  3a 5a -> 31a 33a                                          
   -0.011271  3a 4a -> 15a 16a                                          
   -0.012046  3a 4a -> 26a 27a                                          
    0.010661  3a 4a -> 16a 31a                                          
   -0.011290  3a 4a -> 15a 32a                                          
   -0.012796  3a 4a -> 31a 32a                                          
   -0.010044  3a 4a -> 51a 52a                                          

 ************************ 2025-02-17 11:50:15 *************************
 Executing goldstone...

 Generation of MRCC equations in terms of H and T...
 Generation of antisymmetrized Goldstone diagrams...
 Number of diagrams in T^1 equations:    15
 Number of diagrams in T^2 equations:    38
 Number of diagrams in T^3 equations:    50
 Number of diagrams in T^4 equations:     5
 Translation of diagrams to factorized equations...
 Number of restricted diagrams in T^1 equations:     78
 Number of restricted diagrams in T^2 equations:    344
 Number of restricted diagrams in T^3 equations:    830
 Number of restricted diagrams in T^4 equations:     86
 Optimizing intermediate calculation...
 Number of floating-point operations per iteration step:   1.2573E+13
 Probable CPU time per iteration step (hours):          125.73
 Required memory (Mbytes):        128002.5
 Number of intermediates:                                 527
 Number of intermediates to be stored:                    215
 Length of intermediate file (Mbytes):          2850.4

 ************************ 2025-02-17 11:50:15 *************************
 Executing xmrcc...

 **********************************************************************
 MRCC(                     4 ) calculation 
 
 
 Allocation of      1996800.0 Mbytes of memory...
 Number of spinorbitals:                   362
 Number of alpha electrons:                        5
 Number of beta electrons:                         3
 Number of active particles:                   178
 Number of active holes:                         0
 Spin multiplicity:                     2
 z-component of spin:  1.0
 Spatial symmetry:                      2
 Convergence criterion:  1.0E-06
 Construction of occupation graphs...
 Number of                     0 -fold excitations:                      1
 Number of                     1 -fold excitations:                    256
 Number of                     2 -fold excitations:                  88651
 Number of                     3 -fold excitations:               16793170
 Total number of configurations:               16882078
 Calculation of coupling coefficients...
 Length of intermediate file (Mbytes):          2152.0
 
 ======================================================================
 
 Spin case  1   Alpha:  1   Beta:  3
 Number of excitations:                6319044
 Spin case  2   Alpha:  2   Beta:  2
 Number of excitations:               57529352
 Spin case  3   Alpha:  3   Beta:  1
 Number of excitations:               37891682
 Spin case  4   Alpha:  4   Beta:  0
 Number of excitations:                1528130
 Spin case  5   Alpha:  1   Beta:  3
 Number of excitations:                6177200
 Spin case  6   Alpha:  1   Beta:  3
 Number of excitations:               19403088
 Spin case  7   Alpha:  2   Beta:  2
 Number of excitations:              113767318
 Spin case  8   Alpha:  2   Beta:  2
 Number of excitations:              116379810
 Spin case  9   Alpha:  3   Beta:  1
 Number of excitations:              113620162
 Spin case 10   Alpha:  3   Beta:  1
 Number of excitations:               37891674
 Spin case 11   Alpha:  4   Beta:  0
 Number of excitations:                6168470
 Spin case 12   Alpha:  1   Beta:  3
 Number of excitations:               18967536
 Spin case 13   Alpha:  1   Beta:  3
 Number of excitations:               19399523
 Spin case 14   Alpha:  2   Beta:  2
 Number of excitations:               54959790
 Spin case 15   Alpha:  2   Beta:  2
 Number of excitations:              230155629
 Spin case 16   Alpha:  2   Beta:  2
 Number of excitations:               57527968
 Spin case 17   Alpha:  3   Beta:  1
 Number of excitations:              111034959
 Spin case 18   Alpha:  3   Beta:  1
 Number of excitations:              113619018
 Spin case 19   Alpha:  4   Beta:  0
 Number of excitations:                9135952
 Spin case 20   Alpha:  1   Beta:  3
 Number of excitations:               18963977
 Spin case 21   Alpha:  1   Beta:  3
 Number of excitations:                6316887
 Spin case 22   Alpha:  2   Beta:  2
 Number of excitations:              111182058
 Spin case 23   Alpha:  2   Beta:  2
 Number of excitations:              113763704
 Spin case 24   Alpha:  3   Beta:  1
 Number of excitations:               35365194
 Spin case 25   Alpha:  3   Beta:  1
 Number of excitations:              111033804
 Spin case 26   Alpha:  4   Beta:  0
 Number of excitations:                5888994
 Spin case 27   Alpha:  1   Beta:  3
 Number of excitations:                6175049
 Spin case 28   Alpha:  2   Beta:  2
 Number of excitations:               54958428
 Spin case 29   Alpha:  3   Beta:  1
 Number of excitations:               35365179
 Spin case 30   Alpha:  4   Beta:  0
 Number of excitations:                1393122
 Number of                     4 -fold excitations:             1631882701
 
 Memory requirements /Mbyte/: 
               Minimal        Optimal
 Real*8:       4204.3141      8189.5240
 Integer:     14008.1565
 Total:       18212.4706     22197.6806
 

 ************************ 2025-02-17 12:02:06 *************************
 Executing mrcc...

 **********************************************************************
 CCSDT(Q) calculation                                                   
 
 
 OpenMP parallel version is running.
 Number of CPU cores:  12
 Allocation of         8189.5 Mbytes of memory...
 Number of spinorbitals: 362
 Number of alpha electrons:  5
 Number of beta  electrons:  3
 Number of active particles:                   178
 Number of active holes:                         0
 Spin multiplicity: 3
 z-component of spin:  1.0
 Spatial symmetry: 2
 Convergence criterion:  1.0E-06
 Construction of occupation graphs...
 Number of 0-fold excitations: 1
 Number of 1-fold excitations: 256
 Number of 2-fold excitations: 88651
 Number of 3-fold excitations: 16793170
 Total number of determinants: 16882078
 Calculation of coupling coefficients...
 Initial cluster amplitudes are read from unit 16.
 Length of intermediate file (Mbytes):          2152.0
 Reading integral list from unit 55...
 Sorting integrals...
 Sorting integrals...
 Sorting integrals...
 Sorting integrals...
 Energy of reference determinant [au]:     -74.601446337662
 Calculation of MP denominators...
 
 Starting CC iteration...
 ======================================================================
 Norm of residual vector:     0.36169063
 CPU time [min]:   121.428                   Wall time [min]:    21.761
 
 Iteration  1  CC energy:   -75.05748849  Energy decrease:   0.00000001
 ======================================================================
 Norm of residual vector:     0.04532822
 CPU time [min]:   164.796                   Wall time [min]:    26.631
 
 Iteration  2  CC energy:   -75.06133373  Energy decrease:   0.00384524
 ======================================================================
 Norm of residual vector:     0.01649667
 CPU time [min]:   209.286                   Wall time [min]:    31.584
 
 Iteration  3  CC energy:   -75.06169851  Energy decrease:   0.00036478
 ======================================================================
 Norm of residual vector:     0.00506087
 CPU time [min]:   254.150                   Wall time [min]:    36.545
 
 Iteration  4  CC energy:   -75.06208595  Energy decrease:   0.00038744
 ======================================================================
 Norm of residual vector:     0.00314883
 CPU time [min]:   299.842                   Wall time [min]:    41.579
 
 Iteration  5  CC energy:   -75.06216505  Energy decrease:   0.00007909
 ======================================================================
 Norm of residual vector:     0.00142358
 CPU time [min]:   343.409                   Wall time [min]:    46.465
 
 Iteration  6  CC energy:   -75.06222924  Energy decrease:   0.00006420
 ======================================================================
 Norm of residual vector:     0.00074831
 CPU time [min]:   385.463                   Wall time [min]:    51.104
 
 Iteration  7  CC energy:   -75.06225697  Energy decrease:   0.00002772
 ======================================================================
 Norm of residual vector:     0.00033089
 CPU time [min]:   427.896                   Wall time [min]:    55.795
 
 Iteration  8  CC energy:   -75.06225862  Energy decrease:   0.00000166
 ======================================================================
 Norm of residual vector:     0.00014817
 CPU time [min]:   472.820                   Wall time [min]:    60.771
 
 Iteration  9  CC energy:   -75.06225376  Energy decrease:   0.00000486
 ======================================================================
 Norm of residual vector:     0.00005396
 CPU time [min]:   516.640                   Wall time [min]:    65.633
 
 Iteration 10  CC energy:   -75.06225259  Energy decrease:   0.00000117
 ======================================================================
 Norm of residual vector:     0.00002308
 CPU time [min]:   560.139                   Wall time [min]:    70.483
 
 Iteration 11  CC energy:   -75.06225212  Energy decrease:   0.00000047
 ======================================================================
 Norm of residual vector:     0.00000803
 CPU time [min]:   607.297                   Wall time [min]:    75.645
 
 Iteration 12  CC energy:   -75.06225237  Energy decrease:   0.00000026
 ======================================================================
 Norm of residual vector:     0.00000302
 CPU time [min]:   656.219                   Wall time [min]:    81.011
 
 Iteration 13  CC energy:   -75.06225243  Energy decrease:   0.00000006
 ======================================================================
 Norm of residual vector:     0.00000104
 CPU time [min]:   705.086                   Wall time [min]:    86.352
 
 Iteration 14  CC energy:   -75.06225243  Energy decrease:   1.3300E-09
 ======================================================================
 Norm of residual vector:     0.00000037
 CPU time [min]:   754.772                   Wall time [min]:    91.857
 
 Iteration 15  CC energy:   -75.06225243  Energy decrease:   7.6621E-10
 ======================================================================
 
 Iteration has converged in 15 steps.
 
 Final results:
 Total CCSDT energy [au]:                     -75.062252433874
 
 Perturbative corrections are calculated...
 ======================================================================
 Spin case  1   Alpha:  1   Beta:  3
 Number of excitations:        6319044
 CPU time [min]:   819.796                   Wall time [min]:    99.408
 ======================================================================
 Spin case  2   Alpha:  2   Beta:  2
 Number of excitations:        57529352
 CPU time [min]:   993.727                   Wall time [min]:   116.687
 ======================================================================
 Spin case  3   Alpha:  3   Beta:  1
 Number of excitations:        37891682
 CPU time [min]:  1105.037                   Wall time [min]:   128.099
 ======================================================================
 Spin case  4   Alpha:  4   Beta:  0
 Number of excitations:        1528130
 CPU time [min]:  1117.287                   Wall time [min]:   129.404
 ======================================================================
 Spin case  5   Alpha:  1   Beta:  3
 Number of excitations:        6177200
 CPU time [min]:  1175.341                   Wall time [min]:   135.923
 ======================================================================
 Spin case  6   Alpha:  1   Beta:  3
 Number of excitations:        19403088
 CPU time [min]:  1365.361                   Wall time [min]:   152.943
 ======================================================================
 Spin case  7   Alpha:  2   Beta:  2
 Number of excitations:        113767318
 CPU time [min]:  1701.142                   Wall time [min]:   184.856
 ======================================================================
 Spin case  8   Alpha:  2   Beta:  2
 Number of excitations:        116379810
 CPU time [min]:  2037.598                   Wall time [min]:   217.592
 ======================================================================
 Spin case  9   Alpha:  3   Beta:  1
 Number of excitations:        113620162
 CPU time [min]:  2381.693                   Wall time [min]:   250.176
 ======================================================================
 Spin case 10   Alpha:  3   Beta:  1
 Number of excitations:        37891674
 CPU time [min]:  2484.019                   Wall time [min]:   260.443
 ======================================================================
 Spin case 11   Alpha:  4   Beta:  0
 Number of excitations:        6168470
 CPU time [min]:  2534.357                   Wall time [min]:   265.100
 ======================================================================
 Spin case 12   Alpha:  1   Beta:  3
 Number of excitations:        18967536
 CPU time [min]:  2733.023                   Wall time [min]:   283.556
 ======================================================================
 Spin case 13   Alpha:  1   Beta:  3
 Number of excitations:        19399523
 CPU time [min]:  2917.043                   Wall time [min]:   301.055
 ======================================================================
 Spin case 14   Alpha:  2   Beta:  2
 Number of excitations:        54959790
 CPU time [min]:  3071.141                   Wall time [min]:   317.267
 ======================================================================
 Spin case 15   Alpha:  2   Beta:  2
 Number of excitations:        230155629
 CPU time [min]:  3733.159                   Wall time [min]:   382.228
 ======================================================================
 Spin case 16   Alpha:  2   Beta:  2
 Number of excitations:        57527968
 CPU time [min]:  3870.196                   Wall time [min]:   396.768
 ======================================================================
 Spin case 17   Alpha:  3   Beta:  1
 Number of excitations:        111034959
 CPU time [min]:  4189.750                   Wall time [min]:   428.313
 ======================================================================
 Spin case 18   Alpha:  3   Beta:  1
 Number of excitations:        113619018
 CPU time [min]:  4530.104                   Wall time [min]:   461.501
 ======================================================================
 Spin case 19   Alpha:  4   Beta:  0
 Number of excitations:        9135952
 CPU time [min]:  4602.862                   Wall time [min]:   468.760
 ======================================================================
 Spin case 20   Alpha:  1   Beta:  3
 Number of excitations:        18963977
 CPU time [min]:  4797.811                   Wall time [min]:   487.665
 ======================================================================
 Spin case 21   Alpha:  1   Beta:  3
 Number of excitations:        6316887
 CPU time [min]:  4854.955                   Wall time [min]:   493.428
 ======================================================================
 Spin case 22   Alpha:  2   Beta:  2
 Number of excitations:        111182058
 CPU time [min]:  5179.345                   Wall time [min]:   524.889
 ======================================================================
 Spin case 23   Alpha:  2   Beta:  2
 Number of excitations:        113763704
 CPU time [min]:  5518.559                   Wall time [min]:   556.081
 ======================================================================
 Spin case 24   Alpha:  3   Beta:  1
 Number of excitations:        35365194
 CPU time [min]:  5614.638                   Wall time [min]:   565.056
 ======================================================================
 Spin case 25   Alpha:  3   Beta:  1
 Number of excitations:        111033804
 CPU time [min]:  5947.418                   Wall time [min]:   595.717
 ======================================================================
 Spin case 26   Alpha:  4   Beta:  0
 Number of excitations:        5888994
 CPU time [min]:  5995.081                   Wall time [min]:   600.453
 ======================================================================
 Spin case 27   Alpha:  1   Beta:  3
 Number of excitations:        6175049
 CPU time [min]:  6055.950                   Wall time [min]:   606.473
 ======================================================================
 Spin case 28   Alpha:  2   Beta:  2
 Number of excitations:        54958428
 CPU time [min]:  6218.134                   Wall time [min]:   621.646
 ======================================================================
 Spin case 29   Alpha:  3   Beta:  1
 Number of excitations:        35365179
 CPU time [min]:  6321.860                   Wall time [min]:   631.636
 ======================================================================
 Spin case 30   Alpha:  4   Beta:  0
 Number of excitations:        1393122
 CPU time [min]:  6333.036                   Wall time [min]:   632.784
 ======================================================================
 Number of 4-fold excitations: 1631882701
 
 T_2^+ contribution [au]:                      -0.000083651609
 T_3^+ contribution [au]:                      -0.000112499244
 T_1^+ * T_2^+ contribution [au]:               0.000006027609
 T_1^+ * <ab||ij> contribution [au]:            0.000012879934
 T_2^+ * f_ai contribution [au]:               -0.000005483499
 
 CPU time [min]:  6334.964                   Wall time [min]:   632.997
 
 Total CCSDT[Q] energy [au]:                  -75.062336085483
 Total CCSDT(Q)/A energy [au]:                -75.062442557117
 Total CCSDT(Q)/B energy [au]:                -75.062441188292
 
 Dominant cluster amplitudes
 Printing threshold:  1.00E-02
 
    1.000000  Reference determinant                                     
   -0.019625  2b -> 14b                                                 
   -0.011039  2b -> 18b                                                 
   -0.031913  2b -> 26b                                                 
    0.012522  2b -> 30b                                                 
   -0.020071  2b -> 51b                                                 
   -0.869137  3b -> 6b                                                  
   -0.362647  3b -> 15b                                                 
   -0.114397  3b -> 31b                                                 
   -0.025377  3b -> 56b                                                 
    0.020977  2a -> 30a                                                 
    0.018427  2a -> 55a                                                 
    0.014547  3a -> 6a                                                  
    0.012299  3a -> 15a                                                 
    0.012691  3a -> 48a                                                 
   -0.012670  4a -> 32a                                                 
   -0.017761  5a -> 8a                                                  
   -0.033686  5a -> 17a                                                 
   -0.023812  5a -> 33a                                                 
    0.013662  5a -> 50a                                                 
    0.012502  2b 3b -> 27b 4b                                           
    0.010123  4a 3b -> 6a 4b                                            
    0.012817  4a 3b -> 15a 4b                                           
   -0.016082  3a 2b -> 27a 4b                                           
   -0.011873  3a 2b -> 52a 4b                                           
    0.016087  4a 2b -> 26a 4b                                           
    0.011873  4a 2b -> 51a 4b                                           
   -0.016450  5a 2b -> 28a 4b                                           
   -0.012320  5a 2b -> 53a 4b                                           
   -0.012301  2b 3b -> 5b 13b                                           
    0.014490  2b 3b -> 15b 18b                                          
    0.013208  2b 3b -> 7b 27b                                           
   -0.019872  2b 3b -> 5b 29b                                           
   -0.011515  2b 3b -> 18b 31b                                          
   -0.012659  2b 3b -> 5b 54b                                           
   -0.011876  2a 2b -> 18a 18b                                          
   -0.013619  3a 3b -> 18a 18b                                          
   -0.017205  3a 3b -> 26a 30b                                          
   -0.011009  3a 3b -> 51a 30b                                          
   -0.012208  3a 3b -> 26a 55b                                          
   -0.013374  3a 3b -> 51a 55b                                          
   -0.017264  3a 3b -> 29a 29b                                          
   -0.011285  3a 3b -> 54a 29b                                          
   -0.011925  3a 3b -> 29a 54b                                          
   -0.013360  3a 3b -> 54a 54b                                          
   -0.017205  3a 3b -> 27a 27b                                          
   -0.011008  3a 3b -> 52a 27b                                          
   -0.012207  3a 3b -> 27a 52b                                          
   -0.013374  3a 3b -> 52a 52b                                          
   -0.011374  3a 3b -> 6a 6b                                            
   -0.021210  3a 3b -> 15a 6b                                           
   -0.014271  3a 3b -> 31a 6b                                           
   -0.021709  3a 3b -> 6a 15b                                           
   -0.043203  3a 3b -> 15a 15b                                          
   -0.033384  3a 3b -> 31a 15b                                          
   -0.015369  3a 3b -> 6a 31b                                           
   -0.034480  3a 3b -> 15a 31b                                          
   -0.035926  3a 3b -> 31a 31b                                          
   -0.014148  3a 3b -> 56a 31b                                          
   -0.014718  3a 3b -> 31a 56b                                          
   -0.012764  3a 3b -> 56a 56b                                          
    0.013947  2a 2b -> 17a 5b                                           
    0.012706  3a 3b -> 17a 5b                                           
   -0.012470  5a 3b -> 30a 29b                                          
   -0.012192  5a 3b -> 28a 27b                                          
   -0.012193  5a 3b -> 29a 30b                                          
    0.017061  5a 3b -> 6a 5b                                            
    0.022686  5a 3b -> 15a 5b                                           
   -0.010281  5a 3b -> 48a 5b                                           
   -0.015666  5a 3b -> 17a 6b                                           
   -0.011648  5a 3b -> 33a 6b                                           
   -0.014117  5a 3b -> 8a 15b                                           
   -0.031019  5a 3b -> 17a 15b                                          
   -0.026122  5a 3b -> 33a 15b                                          
   -0.024073  5a 3b -> 17a 31b                                          
   -0.026448  5a 3b -> 33a 31b                                          
   -0.011280  5a 3b -> 58a 31b                                          
   -0.011153  5a 3b -> 33a 56b                                          
   -0.012208  4a 3b -> 28a 29b                                          
   -0.011128  4a 3b -> 6a 7b                                            
   -0.014687  4a 3b -> 15a 7b                                           
   -0.012300  4a 3b -> 15a 16b                                          
   -0.015601  4a 3b -> 16a 6b                                           
   -0.011335  4a 3b -> 32a 6b                                           
   -0.014667  4a 3b -> 7a 15b                                           
   -0.030995  4a 3b -> 16a 15b                                          
   -0.025543  4a 3b -> 32a 15b                                          
   -0.010247  4a 3b -> 7a 31b                                           
   -0.024219  4a 3b -> 16a 31b                                          
   -0.026053  4a 3b -> 32a 31b                                          
   -0.011142  4a 3b -> 57a 31b                                          
   -0.011084  4a 3b -> 32a 56b                                          
   -0.010755  2a 3b -> 18a 6b                                           
   -0.014894  2a 3b -> 9a 15b                                           
   -0.023827  2a 3b -> 18a 15b                                          
    0.014229  2a 3b -> 43a 15b                                          
   -0.012420  2a 3b -> 9a 31b                                           
   -0.022716  2a 3b -> 18a 31b                                          
    0.018405  2a 3b -> 43a 31b                                          
    0.010310  2a 3b -> 43a 56b                                          
   -0.014712  2a 3b -> 29a 5b                                           
   -0.014153  2a 3b -> 54a 5b                                           
   -0.011886  3a 2b -> 13a 5b                                           
   -0.025445  3a 2b -> 29a 5b                                           
   -0.020231  3a 2b -> 54a 5b                                           
    0.016980  3a 2b -> 27a 7b                                           
    0.013162  3a 2b -> 52a 7b                                           
    0.010836  3a 2b -> 27a 16b                                          
    0.010128  3a 2b -> 52a 16b                                          
   -0.014096  3a 2b -> 15a 18b                                          
   -0.014401  3a 2b -> 31a 18b                                          
    0.011992  3a 2b -> 31a 43b                                          
   -0.017006  4a 2b -> 26a 7b                                           
   -0.010357  4a 2b -> 30a 7b                                           
   -0.013153  4a 2b -> 51a 7b                                           
   -0.010923  4a 2b -> 26a 16b                                          
   -0.010100  4a 2b -> 51a 16b                                          
   -0.011957  4a 2b -> 12a 5b                                           
   -0.026053  4a 2b -> 28a 5b                                           
   -0.020722  4a 2b -> 53a 5b                                           
   -0.013493  4a 2b -> 16a 18b                                          
   -0.014387  4a 2b -> 32a 18b                                          
    0.011981  4a 2b -> 32a 43b                                          
    0.011654  5a 2b -> 9a 5b                                            
   -0.013759  5a 2b -> 14a 5b                                           
    0.014134  5a 2b -> 18a 5b                                           
   -0.029591  5a 2b -> 30a 5b                                           
   -0.023875  5a 2b -> 55a 5b                                           
    0.017377  5a 2b -> 28a 7b                                           
    0.013635  5a 2b -> 53a 7b                                           
    0.011139  5a 2b -> 28a 16b                                          
    0.010437  5a 2b -> 53a 16b                                          
   -0.013462  5a 2b -> 17a 18b                                          
   -0.014643  5a 2b -> 33a 18b                                          
    0.012178  5a 2b -> 33a 43b                                          
   -0.012563  4a 5a -> 16a 17a                                          
   -0.010488  4a 5a -> 28a 30a                                          
    0.011667  4a 5a -> 17a 32a                                          
   -0.012000  4a 5a -> 16a 33a                                          
   -0.013778  4a 5a -> 32a 33a                                          
   -0.013069  3a 5a -> 15a 17a                                          
   -0.010938  3a 5a -> 29a 30a                                          
    0.011202  3a 5a -> 17a 31a                                          
   -0.012327  3a 5a -> 15a 33a                                          
   -0.013348  3a 5a -> 31a 33a                                          
   -0.013069  3a 4a -> 15a 16a                                          
   -0.012854  3a 4a -> 26a 27a                                          
    0.011284  3a 4a -> 16a 31a                                          
   -0.012067  3a 4a -> 15a 32a                                          
   -0.013154  3a 4a -> 31a 32a                                          
   -0.010185  3a 4a -> 51a 52a                                          

 ************************ 2025-02-17 22:35:07 *************************
 Executing goldstone...

 Generation of MRCC equations in terms of H and T...
 Generation of antisymmetrized Goldstone diagrams...
 Number of diagrams in T^1 equations:    15
 Number of diagrams in T^2 equations:    38
 Number of diagrams in T^3 equations:    54
 Number of diagrams in T^4 equations:    77
 Number of diagrams in T^5 equations:     8
 Translation of diagrams to factorized equations...
 Number of restricted diagrams in T^1 equations:     78
 Number of restricted diagrams in T^2 equations:    344
 Number of restricted diagrams in T^3 equations:    892
 Number of restricted diagrams in T^4 equations:   1956
 Number of restricted diagrams in T^5 equations:    270
 Optimizing intermediate calculation...
 Number of floating-point operations per iteration step:   2.0713E+15
 Probable CPU time per iteration step (hours):        20712.95
 Required memory (Mbytes):        760087.4
 Number of intermediates:                                 964
 Number of intermediates to be stored:                    396
 Length of intermediate file (Mbytes):        174202.7

 ************************ 2025-02-17 22:35:09 *************************
 Executing xmrcc...

 **********************************************************************
 MRCC(                     5 ) calculation 
 
 
 Allocation of      1996800.0 Mbytes of memory...
 Number of spinorbitals:                   362
 Number of alpha electrons:                        5
 Number of beta electrons:                         3
 Number of active particles:                   178
 Number of active holes:                         0
 Spin multiplicity:                     2
 z-component of spin:  1.0
 Spatial symmetry:                      2
 Convergence criterion:  1.0E-06
 Construction of occupation graphs...
 Number of                     0 -fold excitations:                      1
 Number of                     1 -fold excitations:                    256
 Number of                     2 -fold excitations:                  88651
 Number of                     3 -fold excitations:               16793170
 Number of                     4 -fold excitations:             1631882701
 Total number of configurations:             1648764779
 Calculation of coupling coefficients...
 Length of intermediate file (Mbytes):        110230.5
 
 ======================================================================
 
 Spin case  1   Alpha:  2   Beta:  3
 Number of excitations:              555905000
 Spin case  2   Alpha:  3   Beta:  2
 Number of excitations:             1667636776
 Spin case  3   Alpha:  4   Beta:  1
 Number of excitations:              407522162
 Spin case  4   Alpha:  5   Beta:  0
 Number of excitations:                5193414
 Spin case  5   Alpha:  2   Beta:  3
 Number of excitations:             1099185218
 Spin case  6   Alpha:  2   Beta:  3
 Number of excitations:             1706105240
 Spin case  7   Alpha:  3   Beta:  2
 Number of excitations:             5002621544
 Spin case  8   Alpha:  3   Beta:  2
 Number of excitations:             3373141590
 Spin case  9   Alpha:  4   Beta:  1
 Number of excitations:             1648448312
 Spin case 10   Alpha:  4   Beta:  1
 Number of excitations:              407523882
 Spin case 11   Alpha:  5   Beta:  0
 Number of excitations:               26564590
 Spin case 12   Alpha:  2   Beta:  3
 Number of excitations:              531062346
 Spin case 13   Alpha:  2   Beta:  3
 Number of excitations:             3373485278
 Spin case 14   Alpha:  2   Beta:  3
 Number of excitations:             1706085792
 Spin case 15   Alpha:  3   Beta:  2
 Number of excitations:             4888914846
 Spin case 16   Alpha:  3   Beta:  2
 Number of excitations:            10118688294
 Spin case 17   Alpha:  3   Beta:  2
 Number of excitations:             1667640128
 Spin case 18   Alpha:  4   Beta:  1
 Number of excitations:             2443748974
 Spin case 19   Alpha:  4   Beta:  1
 Number of excitations:             1648443864
 Spin case 20   Alpha:  5   Beta:  0
 Number of excitations:               53091466
 Spin case 21   Alpha:  2   Beta:  3
 Number of excitations:             1629865654
 Spin case 22   Alpha:  2   Beta:  3
 Number of excitations:             3373441504
 Spin case 23   Alpha:  2   Beta:  3
 Number of excitations:              555896816
 Spin case 24   Alpha:  3   Beta:  2
 Number of excitations:             1556480634
 Spin case 25   Alpha:  3   Beta:  2
 Number of excitations:             9888683148
 Spin case 26   Alpha:  3   Beta:  2
 Number of excitations:             5002647184
 Spin case 27   Alpha:  4   Beta:  1
 Number of excitations:             1573918464
 Spin case 28   Alpha:  4   Beta:  1
 Number of excitations:             2443736202
 Spin case 29   Alpha:  5   Beta:  0
 Number of excitations:               51870314
 Spin case 30   Alpha:  2   Beta:  3
 Number of excitations:             1629846028
 Spin case 31   Alpha:  2   Beta:  3
 Number of excitations:             1099156844
 Spin case 32   Alpha:  3   Beta:  2
 Number of excitations:             3148306041
 Spin case 33   Alpha:  3   Beta:  2
 Number of excitations:             4888941228
 Spin case 34   Alpha:  4   Beta:  1
 Number of excitations:              371514801
 Spin case 35   Alpha:  4   Beta:  1
 Number of excitations:             1573913745
 Spin case 36   Alpha:  5   Beta:  0
 Number of excitations:               24773733
 Spin case 37   Alpha:  2   Beta:  3
 Number of excitations:              531054072
 Spin case 38   Alpha:  3   Beta:  2
 Number of excitations:             1556483700
 Spin case 39   Alpha:  4   Beta:  1
 Number of excitations:              371516427
 Spin case 40   Alpha:  5   Beta:  0
 Number of excitations:                4623795
 Number of                     5 -fold excitations:            83607679050
 
 Memory requirements /Mbyte/: 
               Minimal        Optimal
 Real*8:     176931.9081    176931.9081
 Integer:    812869.8333
 Total:      989801.7414    989801.7414
 

 ************************ 2025-02-18 08:12:19 *************************
 Executing mrcc...

 **********************************************************************
 CCSDTQ(P) calculation                                                  
 
 
 OpenMP parallel version is running.
 Number of CPU cores:  12
 Allocation of       176931.9 Mbytes of memory...
 Number of spinorbitals: 362
 Number of alpha electrons:  5
 Number of beta  electrons:  3
 Number of active particles:                   178
 Number of active holes:                         0
 Spin multiplicity: 3
 z-component of spin:  1.0
 Spatial symmetry: 2
 Convergence criterion:  1.0E-06
 Construction of occupation graphs...
 Number of 0-fold excitations: 1
 Number of 1-fold excitations: 256
 Number of 2-fold excitations: 88651
 Number of 3-fold excitations: 16793170
 Number of 4-fold excitations: 1631882701
 Total number of determinants: 1648764779
 Calculation of coupling coefficients...
 Initial cluster amplitudes are read from unit 16.
 Length of intermediate file (Mbytes):        110230.5
 Reading integral list from unit 55...
 Sorting integrals...
 Sorting integrals...
 Sorting integrals...
 Sorting integrals...
 Energy of reference determinant [au]:     -74.601446337662
 Calculation of MP denominators...
 
 Starting CC iteration...
 ======================================================================
 Norm of residual vector:     0.06406396
 CPU time [min]:  3661.569                   Wall time [min]:  1150.429
 
 Iteration  1  CC energy:   -75.06225243  Energy decrease:   4.2217E-09
 ======================================================================
 Norm of residual vector:     0.00893530
 CPU time [min]:  6567.711                   Wall time [min]:  1659.655
 
 Iteration  2  CC energy:   -75.06223414  Energy decrease:   0.00001829
 ======================================================================

 Program dmrcc recieved SIGTERM

 Sending signal 15 to child processes

 Sending signal  9 to child processes

 Program dmrcc terminating
 
 ************************ 2025-02-19 13:35:03 *************************
                   Error at the termination of mrcc.
 **********************************************************************
Starting run at: Wed Jul 30 10:35:29 EDT 2025
 **********************************************************************
                          MRCC program system
 **********************************************************************
 
                              Written by
     Mihaly Kallay, Peter R. Nagy, David Mester, Laszlo Gyevi-Nagy,
        Jozsef Csoka, P. Bernat Szabo, Zoltan Rolik, Gyula Samu,
      Bence Hegely, Bence Ladoczki, Klara Petrov, Jozsef Csontos,
     Adam Ganyecz, Istvan Ladjanszki, Lorant Szegedy, Mate Farkas,
          Pal D. Mezei, Reka A. Horvath, and Balazs D. Lorincz
 
        Department of Physical Chemistry and Materials Science
            Budapest University of Technology and Economics
                  Budapest P.O.Box 91, H-1521 Hungary
 
                              www.mrcc.hu
 
                            Version: 25.1.1

 ************************ 2025-07-30 10:36:00 *************************
 Executing minp...

 Reading input from MINP...
 
 Input file:
 
basis=aCV5Z-EMSL
iface=cfour
uncontract=off
calc=CCSDTQ
ccprog=mrcc
mem=990GB
core=corr
itol=18
scftol=13
cctol=6
ccmaxit=999
scfmaxit=9999
scfiguess=ao
scftype=UHF
#rohftype=semicanonical
rest=1
charge=+0
mult=3
refdet=serialno
1-3
4,5

symm=2
occ=2,0,0,0,0,1,1,1/2,0,0,0,0,0,0,1
geom
O

#Li 1 R
#R=3.065

#unit=angstroms

tprint=0.01
verbosity=3
#nstate=4
 
 
 Checking keyword combinations...
 
 Keywords:
 
 active=none
 agrid=ld0006-ld0590
 agrid_pssp=ld0006-ld0194
 agrid_pssp_sm=ld0006-ld0074
 basis=acv5z-emsl
 basis_sm=none
 basopt=off
 bfbasis=none
 bfgsmem=10
 bfgstol=1.0d-3
 boysalg=jacobi
 bpcompo=0.985
 bpcompv=0.98
 bpdfo=0.985
 bpocc=0.985
 bppdo=0.985
 bppdv=0.98
 bpedo=0.985
 bpedv=0.98
 bp_subsyso=0.95
 bp_subsysv=0.95
 cabscorr=off
 cabsdual=off
 calc=ccsdtq
 ccmaxit=999
 ccprog=mrcc
 ccsdalg=disk
 ccsdmkl=seq
 ccsdrest=off
 ccsdthreads=2
 cctol=6
 charge=+0
 cialg=disk
 ciguess=off
 cmpgrp=auto
 comprest=off
 coord_sys=ric
 core=corr
 corembed=off
 csapprox=off
 cvs=off
 dboc=off
 deltaf12=off
 delocsomofact=
 dendec=cholesky
 dens=0
 denscorr=0
 dfalg=lineq
 dfbasis_cab=none
 dfbasis_cor=none
 dfbasis_scf=none
 dfbasis_scf_sm=auto
 dfintran=ovirt
 dft=off
 dhexc=adc(2)
 diag=david
 docc=
 domrad=10.d0
 drpaalg=fit
 dual=off
 dual_df=off
 dyson=off
 ecp=auto
 edisp=off
 edisp_embed=off
 embed=off
 epairestfact=off
 epairscale=1.d0
 etemp=300
 epert=none
 eps=
 espcharge=off
 excrad=0.d0
 excrad_f12=0.d0
 excrad_fin=0.000000000D+00
 fastdbbsc=v2
 fitting=coulomb
 fmm=off
 fmmord=8
 fnonorb=
 freq=off
 gamma=1.d0
 gauss=spher
 geom=zmat
 gopt=off
 ghost=none
 gtol=7
 grdens=off
 grid=auto
 grid_sm=auto
 gridbatch_cos=2000
 grtol=10
 guido_ct=off
 hamilton=dc
 iface=cfour
 incore=off
 intalg=auto
 ip_ea=off
 itol=18
 laptol=1.d-2
 lccoporder=trffirst
 lcorthr=normal
 lccrest=off
 ldfgrad_tol=8
 lmp2dens=on
 lnoepso=0.d0
 lnoepsv=1e-6
 localcc=off
 localcorrsymm=off
 locintrf=disk
 mact=
 maxact=off
 maxdim=200
 maxex=0
 maxmicroit=100
 mcscfiguess=hf
 mem=990gb
 mmprog=
 molden=on
 mp2ongrid=off
 mpitasks=1
 mulmet=0
 mult=3
 nab=off
 nacto=0
 nactv=0
 naf_amp=3.16d-3
 naf_cor=off
 naf_f12=off
 naf_scf=off
 nafalg=albe
 nafdens=off
 naftyp=
 nchol=auto
 ndeps=1e-3
 nstate=1
 nsing=0
 nto=off
 ntrip=0
 num_grad=off
 occ=2,0,0,0,0,1,1,1/2,0,0,0,0,0,0,1
 occri=off
 oniom=off
 oniom_eechg=off
 oniom_pcm=off
 oniom_qcorr=off
 optalg=
 optmaxit=50
 optetol=1e-6
 optex=0
 optgtol=1e-4
 optstol=1e-3
 orblocc=off
 orbloce=off
 orbloco=off
 orblocv=off
 orblocguess=cholesky
 osveps=1e-3
 ovirt=off
 ovltol=1e-7
 ovosnorb=80.0
 pao_subsys_tol=1e-3
 pao_tol=1e-3
 pcm=off
 popul=off
 pressure=100000
 pssp=off
 ptfreq=0.0
 ptthreads=2
 qmreg=
 qmmm=off
 qro=off
 qscf=off
 redcost_exc=off
 redcost_tddft=off
 refdet=serialno
 rest=1
 rgrid=log3
 rism=off
 rohfcore=semicanonical
 rohftype=standard
 scfalg=auto
 scf_conv=auto
 scfdamp=0.0d0
 scfdamp_mode=off
 scfdamp_end=9999
 scfdamp_dampstep=0.d0
 scfdamp_dtol=0.0d0
 scfdamp_maxfact=0.0d0
 scfdamp_minfact=0.0d0
 scfdiis=on
 scfdiis_dtol=0.0d0
 scfdiis_end=9999
 scfdiis_start=2
 scfdiis_step=1
 scfdiis_watch=off
 scfdiis_wrange=10
 scfdiis_wlimit=5
 scfdiis_delmax=2
 scfdtol=14
 scfext=10
 scfguessdens=
 scfiguess=ao
 scfloc=off
 scflshift=0.20
 scflshift_end=8
 scflshift_dtol=0.0
 scflshift_gaptol=0.20
 scfmaxit=9999
 scftype=uhf
 scftol=13
 scspe=1.d0
 scsph=1.d0
 scsps=1.2d0
 scsps_t=1.2d0
 scspt=0.33333333333333
 scspt_t=0.33333333333333
 scspv=1.d0
 spairtol=1e-4
 sqmprog=
 subminp=top
 subsys_bopu=on
 symm=2
 talg=occ
 temp=298.15
 test=off
 theodore=off
 tlmo=0.999
 tpao=0.94
 tprint=0.01
 uncontract=off
 unit=angs
 usedisk=2
 verbosity=3
 wpairtol=0.100000000E-05
 ispstart=
 ispend=

 ************************ 2025-07-30 10:36:04 *************************
 Executing goldstone...

 Generation of CC equations in terms of H and T...
 Generation of antisymmetrized Goldstone diagrams...
 Number of diagrams in T^1 equations:    15
 Number of diagrams in T^2 equations:    38
 Number of diagrams in T^3 equations:    53
 Number of diagrams in T^4 equations:    74
 Translation of diagrams to factorized equations...
 Optimizing intermediate calculation...
 Number of floating-point operations per iteration step:   2.0945E+14
 Probable CPU time per iteration step (hours):         2094.45
 Required memory (Mbytes):        128002.5
 Number of intermediates:                                 104
 Number of intermediates to be stored:                     44
 Length of intermediate file (Mbytes):          7205.2

 ************************ 2025-07-30 10:36:07 *************************
 Executing xmrcc...

 **********************************************************************
 CC(                     4 ) calculation 
 
 
 Allocation of      1013760.0 Mbytes of memory...
 Number of spinorbitals:                   362
 Number of alpha electrons:                        5
 Number of beta electrons:                         3
 Spin multiplicity:                     2
 z-component of spin:  1.0
 Spatial symmetry:                      2
 Convergence criterion:  1.0E-06
 Construction of occupation graphs...
 Number of                     0 -fold excitations:                      1
 Number of                     1 -fold excitations:                    256
 Number of                     2 -fold excitations:                  88651
 Number of                     3 -fold excitations:               16793170
 Number of                     4 -fold excitations:             1631882701
 Total number of configurations:             1648764779
 Calculation of coupling coefficients...
 Length of intermediate file (Mbytes):          4957.4
 
 ======================================================================
 
 Memory requirements /Mbyte/: 
               Minimal        Optimal
 Real*8:      91886.9490     91886.9490
 Integer:     14715.4519
 Total:      106602.4009    106602.4009
 

 ************************ 2025-07-30 10:44:36 *************************
 Executing mrcc...

 **********************************************************************
 CCSDTQ calculation                                                     
 
 
 OpenMP parallel version is running.
 Number of CPU cores:  12
 Allocation of        91886.9 Mbytes of memory...
 Number of spinorbitals: 362
 Number of alpha electrons:  5
 Number of beta  electrons:  3
 Spin multiplicity: 3
 z-component of spin:  1.0
 Spatial symmetry: 2
 Convergence criterion:  1.0E-06
 Construction of occupation graphs...
 Number of 0-fold excitations: 1
 Number of 1-fold excitations: 256
 Number of 2-fold excitations: 88651
 Number of 3-fold excitations: 16793170
 Number of 4-fold excitations: 1631882701
 Total number of determinants: 1648764779
 Calculation of coupling coefficients...
 Initial cluster amplitudes are read from unit 16.
 Length of intermediate file (Mbytes):          4957.4
 Reading integral list from unit 55...
 Sorting integrals...
 Sorting integrals...
 Sorting integrals...
 Sorting integrals...
 Energy of reference determinant [au]:     -74.601446337662
 Calculation of MP denominators...
 
 Starting CC iteration...
 ======================================================================
 Norm of residual vector:    71.67234179
 CPU time [min]:  1850.991                   Wall time [min]:   267.112
 
 Iteration  1  CC energy:   -74.96909596  Energy decrease:   0.36688081
 ======================================================================
 Norm of residual vector:     2.51537023
 CPU time [min]:  3822.634                   Wall time [min]:   534.629
 
 Iteration  2  CC energy:   -75.02430295  Energy decrease:   0.05520698
 ======================================================================
 Norm of residual vector:     0.33246707
 CPU time [min]:  5717.927                   Wall time [min]:   794.473
 
 Iteration  3  CC energy:   -75.06534903  Energy decrease:   0.04104608
 ======================================================================
 Norm of residual vector:     0.15317303
 CPU time [min]:  7610.695                   Wall time [min]:  1058.518
 
 Iteration  4  CC energy:   -75.05823716  Energy decrease:   0.00711186
 ======================================================================
 Norm of residual vector:     0.06788851
 CPU time [min]:  9445.430                   Wall time [min]:  1318.819
 
 Iteration  5  CC energy:   -75.06170053  Energy decrease:   0.00346337
 ======================================================================
 Norm of residual vector:     0.01765249
 CPU time [min]: 11240.849                   Wall time [min]:  1576.516
 
 Iteration  6  CC energy:   -75.06234083  Energy decrease:   0.00064030
 ======================================================================
 Norm of residual vector:     0.00817097
 CPU time [min]: 13075.138                   Wall time [min]:  1837.191
 
 Iteration  7  CC energy:   -75.06235371  Energy decrease:   0.00001288
 ======================================================================
 Norm of residual vector:     0.00444973
 CPU time [min]: 14801.599                   Wall time [min]:  2091.650
 
 Iteration  8  CC energy:   -75.06238596  Energy decrease:   0.00003225
 ======================================================================
 Norm of residual vector:     0.00192653
 CPU time [min]: 16643.547                   Wall time [min]:  2357.791
 
 Iteration  9  CC energy:   -75.06243163  Energy decrease:   0.00004567
 ======================================================================
 Norm of residual vector:     0.00095554
 CPU time [min]: 18522.607                   Wall time [min]:  2628.603
 
 Iteration 10  CC energy:   -75.06243492  Energy decrease:   0.00000329
 ======================================================================
 Norm of residual vector:     0.00042069
 CPU time [min]: 20359.871                   Wall time [min]:  2900.047
 
 Iteration 11  CC energy:   -75.06242477  Energy decrease:   0.00001015
 ======================================================================
 Norm of residual vector:     0.00017117
 CPU time [min]: 22263.077                   Wall time [min]:  3180.906
 
 Iteration 12  CC energy:   -75.06242136  Energy decrease:   0.00000341
 ======================================================================
 Norm of residual vector:     0.00007146
 CPU time [min]: 24105.978                   Wall time [min]:  3456.877
 
 Iteration 13  CC energy:   -75.06242412  Energy decrease:   0.00000276
 ======================================================================
 Norm of residual vector:     0.00002858
 CPU time [min]: 25926.253                   Wall time [min]:  3732.585
 
 Iteration 14  CC energy:   -75.06242408  Energy decrease:   0.00000004
 ======================================================================
 Norm of residual vector:     0.00001009
 CPU time [min]: 27860.610                   Wall time [min]:  4022.062
 
 Iteration 15  CC energy:   -75.06242397  Energy decrease:   0.00000010
 ======================================================================
 Norm of residual vector:     0.00000455
 CPU time [min]: 29667.541                   Wall time [min]:  4301.137
 
 Iteration 16  CC energy:   -75.06242404  Energy decrease:   0.00000007
 ======================================================================
 Norm of residual vector:     0.00000168
 CPU time [min]: 31533.621                   Wall time [min]:  4589.387
 
 Iteration 17  CC energy:   -75.06242400  Energy decrease:   0.00000004
 ======================================================================
 Norm of residual vector:     0.00000064
 CPU time [min]: 33484.594                   Wall time [min]:  4888.238
 
 Iteration 18  CC energy:   -75.06242400  Energy decrease:   4.1703E-09
 ======================================================================
 
 Iteration has converged in 18 steps.
 
 Final results:
 Total CCSDTQ energy [au]:                    -75.062424001511
 
 Dominant cluster amplitudes
 Printing threshold:  1.00E-02
 
    1.000000  Reference determinant                                     
   -0.019626  2b -> 14b                                                 
   -0.011058  2b -> 18b                                                 
   -0.031916  2b -> 26b                                                 
    0.012526  2b -> 30b                                                 
   -0.020072  2b -> 51b                                                 
   -0.869242  3b -> 6b                                                  
   -0.362740  3b -> 15b                                                 
   -0.114409  3b -> 31b                                                 
   -0.025377  3b -> 56b                                                 
    0.020978  2a -> 30a                                                 
    0.018428  2a -> 55a                                                 
    0.014554  3a -> 6a                                                  
    0.012302  3a -> 15a                                                 
    0.012690  3a -> 48a                                                 
   -0.012664  4a -> 32a                                                 
   -0.017784  5a -> 8a                                                  
   -0.033712  5a -> 17a                                                 
   -0.023808  5a -> 33a                                                 
    0.013661  5a -> 50a                                                 
   -0.012343  2b 3b -> 5b 13b                                           
    0.014517  2b 3b -> 15b 18b                                          
   -0.012526  2b 3b -> 4b 27b                                           
    0.013232  2b 3b -> 7b 27b                                           
   -0.019905  2b 3b -> 5b 29b                                           
   -0.011529  2b 3b -> 18b 31b                                          
   -0.012663  2b 3b -> 5b 54b                                           
   -0.011887  2a 2b -> 18a 18b                                          
   -0.013625  3a 3b -> 18a 18b                                          
   -0.017220  3a 3b -> 26a 30b                                          
   -0.011014  3a 3b -> 51a 30b                                          
   -0.012213  3a 3b -> 26a 55b                                          
   -0.013376  3a 3b -> 51a 55b                                          
   -0.017279  3a 3b -> 29a 29b                                          
   -0.011291  3a 3b -> 54a 29b                                          
   -0.011931  3a 3b -> 29a 54b                                          
   -0.013362  3a 3b -> 54a 54b                                          
   -0.017220  3a 3b -> 27a 27b                                          
   -0.011014  3a 3b -> 52a 27b                                          
   -0.012213  3a 3b -> 27a 52b                                          
   -0.013376  3a 3b -> 52a 52b                                          
   -0.011421  3a 3b -> 6a 6b                                            
   -0.021271  3a 3b -> 15a 6b                                           
   -0.014291  3a 3b -> 31a 6b                                           
   -0.021771  3a 3b -> 6a 15b                                           
   -0.043294  3a 3b -> 15a 15b                                          
   -0.033427  3a 3b -> 31a 15b                                          
   -0.015387  3a 3b -> 6a 31b                                           
   -0.034520  3a 3b -> 15a 31b                                          
   -0.035956  3a 3b -> 31a 31b                                          
   -0.014147  3a 3b -> 56a 31b                                          
   -0.014720  3a 3b -> 31a 56b                                          
   -0.012759  3a 3b -> 56a 56b                                          
    0.013970  2a 2b -> 17a 5b                                           
    0.012731  3a 3b -> 17a 5b                                           
   -0.012481  5a 3b -> 30a 29b                                          
   -0.012203  5a 3b -> 28a 27b                                          
   -0.012203  5a 3b -> 29a 30b                                          
    0.017201  5a 3b -> 6a 5b                                            
    0.022792  5a 3b -> 15a 5b                                           
   -0.010288  5a 3b -> 48a 5b                                           
   -0.015710  5a 3b -> 17a 6b                                           
   -0.011663  5a 3b -> 33a 6b                                           
   -0.014155  5a 3b -> 8a 15b                                           
   -0.031084  5a 3b -> 17a 15b                                          
   -0.026157  5a 3b -> 33a 15b                                          
   -0.024100  5a 3b -> 17a 31b                                          
   -0.026475  5a 3b -> 33a 31b                                          
   -0.011281  5a 3b -> 58a 31b                                          
   -0.011155  5a 3b -> 33a 56b                                          
   -0.012221  4a 3b -> 28a 29b                                          
    0.010232  4a 3b -> 6a 4b                                            
    0.012898  4a 3b -> 15a 4b                                           
   -0.011235  4a 3b -> 6a 7b                                            
   -0.014768  4a 3b -> 15a 7b                                           
   -0.012344  4a 3b -> 15a 16b                                          
   -0.015651  4a 3b -> 16a 6b                                           
   -0.011350  4a 3b -> 32a 6b                                           
   -0.014712  4a 3b -> 7a 15b                                           
   -0.031067  4a 3b -> 16a 15b                                          
   -0.025578  4a 3b -> 32a 15b                                          
   -0.010257  4a 3b -> 7a 31b                                           
   -0.024247  4a 3b -> 16a 31b                                          
   -0.026080  4a 3b -> 32a 31b                                          
   -0.011143  4a 3b -> 57a 31b                                          
   -0.011086  4a 3b -> 32a 56b                                          
   -0.010766  2a 3b -> 18a 6b                                           
   -0.014911  2a 3b -> 9a 15b                                           
   -0.023849  2a 3b -> 18a 15b                                          
    0.014236  2a 3b -> 43a 15b                                          
   -0.012425  2a 3b -> 9a 31b                                           
   -0.022732  2a 3b -> 18a 31b                                          
    0.018413  2a 3b -> 43a 31b                                          
    0.010309  2a 3b -> 43a 56b                                          
   -0.014731  2a 3b -> 29a 5b                                           
   -0.014158  2a 3b -> 54a 5b                                           
   -0.011942  3a 2b -> 13a 5b                                           
   -0.025487  3a 2b -> 29a 5b                                           
   -0.020238  3a 2b -> 54a 5b                                           
   -0.016112  3a 2b -> 27a 4b                                           
   -0.011877  3a 2b -> 52a 4b                                           
    0.017008  3a 2b -> 27a 7b                                           
    0.013167  3a 2b -> 52a 7b                                           
    0.010848  3a 2b -> 27a 16b                                          
    0.010130  3a 2b -> 52a 16b                                          
   -0.014135  3a 2b -> 15a 18b                                          
   -0.014414  3a 2b -> 31a 18b                                          
    0.011999  3a 2b -> 31a 43b                                          
    0.016113  4a 2b -> 26a 4b                                           
    0.011877  4a 2b -> 51a 4b                                           
   -0.017031  4a 2b -> 26a 7b                                           
   -0.010370  4a 2b -> 30a 7b                                           
   -0.013157  4a 2b -> 51a 7b                                           
   -0.010936  4a 2b -> 26a 16b                                          
   -0.010103  4a 2b -> 51a 16b                                          
   -0.011996  4a 2b -> 12a 5b                                           
   -0.026087  4a 2b -> 28a 5b                                           
   -0.020729  4a 2b -> 53a 5b                                           
   -0.013523  4a 2b -> 16a 18b                                          
   -0.014400  4a 2b -> 32a 18b                                          
    0.011987  4a 2b -> 32a 43b                                          
    0.011699  5a 2b -> 9a 5b                                            
   -0.013802  5a 2b -> 14a 5b                                           
    0.014157  5a 2b -> 18a 5b                                           
   -0.029630  5a 2b -> 30a 5b                                           
   -0.023884  5a 2b -> 55a 5b                                           
   -0.016474  5a 2b -> 28a 4b                                           
   -0.012325  5a 2b -> 53a 4b                                           
    0.017400  5a 2b -> 28a 7b                                           
    0.013640  5a 2b -> 53a 7b                                           
    0.011150  5a 2b -> 28a 16b                                          
    0.010440  5a 2b -> 53a 16b                                          
   -0.013491  5a 2b -> 17a 18b                                          
   -0.014656  5a 2b -> 33a 18b                                          
    0.012185  5a 2b -> 33a 43b                                          
   -0.012634  4a 5a -> 16a 17a                                          
   -0.010508  4a 5a -> 28a 30a                                          
    0.011687  4a 5a -> 17a 32a                                          
   -0.012021  4a 5a -> 16a 33a                                          
   -0.013793  4a 5a -> 32a 33a                                          
   -0.013160  3a 5a -> 15a 17a                                          
   -0.010960  3a 5a -> 29a 30a                                          
    0.011221  3a 5a -> 17a 31a                                          
   -0.012354  3a 5a -> 15a 33a                                          
   -0.013362  3a 5a -> 31a 33a                                          
   -0.013167  3a 4a -> 15a 16a                                          
   -0.012877  3a 4a -> 26a 27a                                          
    0.011304  3a 4a -> 16a 31a                                          
   -0.012094  3a 4a -> 15a 32a                                          
   -0.013167  3a 4a -> 31a 32a                                          
   -0.010189  3a 4a -> 51a 52a                                          
 
 ************************ 2025-08-02 20:13:51 *************************
                      Normal termination of mrcc.
 **********************************************************************
Program finished with exit code 0 at: Sat Aug  2 20:13:51 EDT 2025
