#INFO: **** input file is /lustre09/project/6004934/jaafar1/PySCF-MRCC/Fluorine/cation/dawCV2Z/UHF/input.py ****
import pyscf
from pyscf import cc, lib, tools, scf, symm, ao2mo
from pyscf.gto.basis import parse_gaussian
from pyscf.scf import atom_hf

name = 'out'
mol = pyscf.M(
    atom = '''
        F
    ''',
    unit = 'angstrom',
    basis = {
            'F' : parse_gaussian.load('F-d-aug-cc-pwCVDZ.gbs', 'F')
    },
    charge = +1,
    spin = 2,
    symmetry = True,
    verbose = 9,
    symmetry_subgroup = 'D2h',
    output = name +'.txt',
    max_memory = 4000,
)

original_AtomSphAverageRHF = atom_hf.AtomSphAverageRHF

class CustomAtomSphAverageRHF(original_AtomSphAverageRHF):
    def __init__(self, mol):
        super().__init__(mol)
        self.max_cycle = 9999
        self.direct_scf = False

atom_hf.AtomSphAverageRHF = CustomAtomSphAverageRHF

mf = mol.UHF().set(
    conv_tol=1e-15,
    max_cycle=9999,
    ddm_tol=1e-14,
    direct_scf=False,
    chkfile=name + '.chk',
    init_guess='atom',
    irrep_nelec={'Ag': 4, 'B3u': 2, 'B2u': 1, 'B1u': 1}
)

mf.kernel()

atom_hf.AtomSphAverageRHF = original_AtomSphAverageRHF

#pyscf.tools.fcidump.from_chkfile_uhf('FCIdump',name+'.chk',tol=1e-18, float_format='% 0.20E',molpro_orbsym=False,orbsym=None)
pyscf.tools.fcidump.from_scf_uhf(mf,'fort.55',tol=1e-18, float_format='% 0.20E',molpro_orbsym=False)
#MRCCInterface.run_mrcc(mf, fort_file='fort.55', mrcc_input_file='MINP', tol=1e-18, float_format='% 0.20E', molpro_orbsym=False)
#INFO: ******************** input file end ********************


System: uname_result(system='Linux', node='rc32201', release='5.14.0-687.15.1.el9_8.x86_64', version='#1 SMP PREEMPT_DYNAMIC Thu Jun 11 08:51:45 EDT 2026', machine='x86_64')  Threads 4
Python 3.13.2 (main, Feb  5 2025, 15:06:39) [GCC 13.3.0]
numpy 2.2.2  scipy 1.15.1  h5py 3.13.0
Date: Fri Jun 19 07:22:31 2026
PySCF version 2.10.0
PySCF path  /home/jaafar1/links/projects/rrg-tzeng/jaafar1/VENV/MRCCInterface/lib/python3.13/site-packages/pyscf

[CONFIG] ARGPARSE = False
[CONFIG] DEBUG = False
[CONFIG] MAX_MEMORY = 4000
[CONFIG] TMPDIR = /tmp
[CONFIG] UNIT = angstrom
[CONFIG] VERBOSE = 3
[CONFIG] conf_file = None
[INPUT] verbose = 9
[INPUT] max_memory = 4000 
[INPUT] num. atoms = 1
[INPUT] num. electrons = 8
[INPUT] charge = 1
[INPUT] spin (= nelec alpha-beta = 2S) = 2
[INPUT] symmetry True subgroup D2h
[INPUT] Mole.unit = angstrom
[INPUT] Symbol           X                Y                Z      unit          X                Y                Z       unit  Magmom
[INPUT]  1 F      0.000000000000   0.000000000000   0.000000000000 AA    0.000000000000   0.000000000000   0.000000000000 Bohr   0.0
[INPUT] ---------------- BASIS SET ---------------- 
[INPUT] l, kappa, [nprim/nctr], expnt,             c_1 c_2 ...
[INPUT] F
[INPUT] 0    0    [9    /2   ]  14710             0.000721 -0.000165
                                2207              0.005553 -0.001308
                                502.8             0.028267 -0.006495
                                142.6             0.106444 -0.026691
                                46.47             0.286814 -0.07369
                                16.7              0.448641 -0.170776
                                6.356             0.264761 -0.112327
                                1.316             0.015333 0.562814
                                0.3897            -0.002332 0.568778
[INPUT] 0    0    [1    /1   ]  6.724                1
[INPUT] 0    0    [1    /1   ]  0.3897               1
[INPUT] 0    0    [1    /1   ]  0.09863              1
[INPUT] 0    0    [1    /1   ]  0.025                1
[INPUT] 1    0    [1    /1   ]  16.803               1
[INPUT] 1    0    [4    /1   ]  22.67             0.044878
                                4.977             0.235718
                                1.347             0.508521
                                0.3471            0.45812
[INPUT] 1    0    [1    /1   ]  0.3471               1
[INPUT] 1    0    [1    /1   ]  0.08502              1
[INPUT] 1    0    [1    /1   ]  0.0208               1
[INPUT] 2    0    [1    /1   ]  1.64                 1
[INPUT] 2    0    [1    /1   ]  0.464                1
[INPUT] 2    0    [1    /1   ]  0.131                1

nuclear repulsion = 0
point group symmetry = SO3, use subgroup D2h
symmetry origin: [0. 0. 0.]
symmetry axis x: [1. 0. 0.]
symmetry axis y: [0. 1. 0.]
symmetry axis z: [0. 0. 1.]
num. orbitals of irrep Ag = 12
num. orbitals of irrep B1g = 3
num. orbitals of irrep B2g = 3
num. orbitals of irrep B3g = 3
num. orbitals of irrep B1u = 5
num. orbitals of irrep B2u = 5
num. orbitals of irrep B3u = 5
number of shells = 13
number of NR pGTOs = 52
number of NR cGTOs = 36
basis = {'F': [[0, [14710.0, 0.000721, -0.000165], [2207.0, 0.005553, -0.001308], [502.8, 0.028267, -0.006495], [142.6, 0.106444, -0.026691], [46.47, 0.286814, -0.07369], [16.7, 0.448641, -0.170776], [6.356, 0.264761, -0.112327], [1.316, 0.015333, 0.562814], [0.3897, -0.002332, 0.568778]], [0, [6.724, 1.0]], [0, [0.3897, 1.0]], [0, [0.09863, 1.0]], [0, [0.025, 1.0]], [1, [16.803, 1.0]], [1, [22.67, 0.044878], [4.977, 0.235718], [1.347, 0.508521], [0.3471, 0.45812]], [1, [0.3471, 1.0]], [1, [0.08502, 1.0]], [1, [0.0208, 1.0]], [2, [1.64, 1.0]], [2, [0.464, 1.0]], [2, [0.131, 1.0]]]}
ecp = {}
bas 0, expnt(s) = [1.471e+04 2.207e+03 5.028e+02 1.426e+02 4.647e+01 1.670e+01 6.356e+00
 1.316e+00 3.897e-01]
bas 1, expnt(s) = [6.724]
bas 2, expnt(s) = [0.3897]
bas 3, expnt(s) = [0.09863]
bas 4, expnt(s) = [0.025]
bas 5, expnt(s) = [16.803]
bas 6, expnt(s) = [22.67    4.977   1.347   0.3471]
bas 7, expnt(s) = [0.3471]
bas 8, expnt(s) = [0.08502]
bas 9, expnt(s) = [0.0208]
bas 10, expnt(s) = [1.64]
bas 11, expnt(s) = [0.464]
bas 12, expnt(s) = [0.131]
CPU time:         0.91
arg.atm = [[ 9 20  1 23  0  0]]
arg.bas = [[ 0  0  9  2  0 24 33  0]
 [ 0  0  1  1  0 51 52  0]
 [ 0  0  1  1  0 53 54  0]
 [ 0  0  1  1  0 55 56  0]
 [ 0  0  1  1  0 57 58  0]
 [ 0  1  1  1  0 59 60  0]
 [ 0  1  4  1  0 61 65  0]
 [ 0  1  1  1  0 69 70  0]
 [ 0  1  1  1  0 71 72  0]
 [ 0  1  1  1  0 73 74  0]
 [ 0  2  1  1  0 75 76  0]
 [ 0  2  1  1  0 77 78  0]
 [ 0  2  1  1  0 79 80  0]]
arg.env = [ 0.00000000e+00  0.00000000e+00  0.00000000e+00  0.00000000e+00
  0.00000000e+00  0.00000000e+00  0.00000000e+00  0.00000000e+00
  0.00000000e+00  0.00000000e+00  0.00000000e+00  0.00000000e+00
  0.00000000e+00  0.00000000e+00  0.00000000e+00  0.00000000e+00
  0.00000000e+00  0.00000000e+00  0.00000000e+00  0.00000000e+00
  0.00000000e+00  0.00000000e+00  0.00000000e+00  0.00000000e+00
  1.47100000e+04  2.20700000e+03  5.02800000e+02  1.42600000e+02
  4.64700000e+01  1.67000000e+01  6.35600000e+00  1.31600000e+00
  3.89700000e-01  2.43310018e+00  4.51746342e+00  7.58300587e+00
  1.10975230e+01  1.28971892e+01  9.36378719e+00  2.67767060e+00
  4.75975144e-02 -2.90597298e-03 -5.56812232e-01 -1.06408130e+00
 -1.74237217e+00 -2.78272191e+00 -3.31362516e+00 -3.56434315e+00
 -1.13602371e+00  1.74711755e+00  7.08770955e-01  6.72400000e+00
  1.05495954e+01  3.89700000e-01  1.24612850e+00  9.86300000e-02
  4.44653586e-01  2.50000000e-02  1.58843713e-01  1.68030000e+01
  9.92471231e+01  2.26700000e+01  4.97700000e+00  1.34700000e+00
  3.47100000e-01  6.47637964e+00  5.11195124e+00  2.15279557e+00
  3.56067162e-01  3.47100000e-01  7.77235555e-01  8.50200000e-02
  1.33932436e-01  2.08000000e-02  2.30443022e-02  1.64000000e+00
  6.20163383e+00  4.64000000e-01  6.80668812e-01  1.31000000e-01
  7.44310513e-02]
ecpbas  = []


******** <class 'pyscf.scf.uhf_symm.SymAdaptedUHF'> ********
method = SymAdaptedUHF
initial guess = atom
damping factor = 0
level_shift factor = 0
DIIS = <class 'pyscf.scf.diis.CDIIS'>
diis_start_cycle = 1
diis_space = 8
diis_damp = 0
SCF conv_tol = 1e-15
SCF conv_tol_grad = None
SCF ddm_tol = 1e-14
SCF max_cycles = 9999
direct_scf = False
chkfile to save SCF result = out.chk
max_memory 4000 MB (current use 122 MB)
number electrons alpha = 5  beta = 3
irrep_nelec {'Ag': 4, 'B3u': 2, 'B2u': 1, 'B1u': 1}
Freeze 8 electrons in irreps ['Ag', 'B3u', 'B2u', 'B1u']
    0 free electrons in irreps B1g B2g B3g
cond(S) = 144.96723065742424

WARN: Singularity detected in overlap matrix (condition number =  145). SCF may be inaccurate and hard to converge.

Set gradient conv threshold to 3.16228e-08
Spherically averaged atomic HF for {'F'}


******** <class '__main__.CustomAtomSphAverageRHF'> ********
method = CustomAtomSphAverageRHF
initial guess = minao
damping factor = 0
level_shift factor = 0
DIIS = <class 'pyscf.scf.diis.CDIIS'>
diis_start_cycle = 1
diis_space = 8
diis_damp = 0
SCF conv_tol = 1e-09
SCF conv_tol_grad = None
SCF ddm_tol = 1e-10
SCF max_cycles = 9999
direct_scf = False
chkfile to save SCF result = /tmp/tmphac7oa06
max_memory 4000 MB (current use 123 MB)
atom = F
Set gradient conv threshold to 3.16228e-05
Initial guess from minao.
Nelec from initial guess = 8.998050877267426
E1 = -139.02285746312862  E_coul = 39.995430478685655
init E= -99.027426984443
l = 0  e_0 = -26.4056022
l = 0  e_1 = -1.59551885
l = 0  e_2 = 0.0424512655
l = 0  e_3 = 0.326380583
l = 0  e_4 = 2.27609461
l = 0  e_5 = 25.0567053
l = 1  e_0 = -0.607587434
l = 1  e_1 = 0.0506757899
l = 1  e_2 = 0.290565854
l = 1  e_3 = 1.62845284
l = 1  e_4 = 23.1743991
l = 2  e_0 = 0.420459631
l = 2  e_1 = 1.53988836
l = 2  e_2 = 4.93146848
    CPU time for initialize scf      0.05 sec, wall time      0.02 sec
l = 0  e_0 = -26.4056022
l = 0  e_1 = -1.59551885
l = 0  e_2 = 0.0424512655
l = 0  e_3 = 0.326380583
l = 0  e_4 = 2.27609461
l = 0  e_5 = 25.0567053
l = 1  e_0 = -0.607587434
l = 1  e_1 = 0.0506757899
l = 1  e_2 = 0.290565854
l = 1  e_3 = 1.62845284
l = 1  e_4 = 23.1743991
l = 2  e_0 = 0.420459631
l = 2  e_1 = 1.53988836
l = 2  e_2 = 4.93146848
l = 0  occ = 2 + 0
l = 1  occ = 0 + 1.667
l = 2  occ = 0 + 0
l = 3  occ = 0 + 0
E1 = -138.56592473856426  E_coul = 39.5314462997561
cycle= 1 E= -99.0344784388082  delta_E= -0.00705  |g|=    0  |ddm|= 0.0946
    CPU time for cycle= 1      0.01 sec, wall time      0.00 sec
diis-norm(errvec)=0.0911072
diis-c [-0.00830052  1.        ]
l = 0  e_0 = -26.521884
l = 0  e_1 = -1.63206968
l = 0  e_2 = 0.0429182966
l = 0  e_3 = 0.324635009
l = 0  e_4 = 2.25094209
l = 0  e_5 = 24.9661344
l = 1  e_0 = -0.639213087
l = 1  e_1 = 0.0508951297
l = 1  e_2 = 0.28946544
l = 1  e_3 = 1.60752275
l = 1  e_4 = 23.0742652
l = 2  e_0 = 0.421453291
l = 2  e_1 = 1.53262906
l = 2  e_2 = 4.90098379
l = 0  occ = 2 + 0
l = 1  occ = 0 + 1.667
l = 2  occ = 0 + 0
l = 3  occ = 0 + 0
E1 = -138.8438195325142  E_coul = 39.808811526292914
cycle= 2 E= -99.0350080062213  delta_E= -0.00053  |g|=    0  |ddm|= 0.0523
    CPU time for cycle= 2      0.01 sec, wall time      0.00 sec
diis-norm(errvec)=0.0460891
diis-c [-1.18475030e-04  3.31154655e-01  6.68845345e-01]
l = 0  e_0 = -26.4806659
l = 0  e_1 = -1.61673679
l = 0  e_2 = 0.0431648599
l = 0  e_3 = 0.326633819
l = 0  e_4 = 2.26226885
l = 0  e_5 = 24.9993894
l = 1  e_0 = -0.624695351
l = 1  e_1 = 0.0509510432
l = 1  e_2 = 0.290699753
l = 1  e_3 = 1.61810689
l = 1  e_4 = 23.1107812
l = 2  e_0 = 0.422211157
l = 2  e_1 = 1.53795692
l = 2  e_2 = 4.91591801
l = 0  occ = 2 + 0
l = 1  occ = 0 + 1.667
l = 2  occ = 0 + 0
l = 3  occ = 0 + 0
E1 = -138.7549954871394  E_coul = 39.71983980889942
cycle= 3 E= -99.03515567824  delta_E= -0.000148  |g|=    0  |ddm|= 0.0152
    CPU time for cycle= 3      0.00 sec, wall time      0.00 sec
diis-norm(errvec)=0.00198349
diis-c [-7.59381406e-08 -7.46596060e-02 -1.39129125e-01  1.21378873e+00]
l = 0  e_0 = -26.4803907
l = 0  e_1 = -1.61629399
l = 0  e_2 = 0.0432264313
l = 0  e_3 = 0.326884431
l = 0  e_4 = 2.26273243
l = 0  e_5 = 24.9997807
l = 1  e_0 = -0.624048339
l = 1  e_1 = 0.0509591666
l = 1  e_2 = 0.290846113
l = 1  e_3 = 1.61872461
l = 1  e_4 = 23.1111683
l = 2  e_0 = 0.422406027
l = 2  e_1 = 1.53847143
l = 2  e_2 = 4.91671483
l = 0  occ = 2 + 0
l = 1  occ = 0 + 1.667
l = 2  occ = 0 + 0
l = 3  occ = 0 + 0
E1 = -138.7567802764185  E_coul = 39.721623659215865
cycle= 4 E= -99.0351566172026  delta_E= -9.39e-07  |g|=    0  |ddm|= 0.000726
    CPU time for cycle= 4      0.01 sec, wall time      0.00 sec
diis-norm(errvec)=3.19422e-05
diis-c [-3.46469652e-10  5.67069832e-03  1.03376510e-02 -9.85817538e-02
  1.08257340e+00]
l = 0  e_0 = -26.4803777
l = 0  e_1 = -1.61628804
l = 0  e_2 = 0.0432264598
l = 0  e_3 = 0.326884098
l = 0  e_4 = 2.26273578
l = 0  e_5 = 24.9997922
l = 1  e_0 = -0.624040822
l = 1  e_1 = 0.0509589586
l = 1  e_2 = 0.290845163
l = 1  e_3 = 1.61872687
l = 1  e_4 = 23.1111799
l = 2  e_0 = 0.42240632
l = 2  e_1 = 1.53847305
l = 2  e_2 = 4.91671957
l = 0  occ = 2 + 0
l = 1  occ = 0 + 1.667
l = 2  occ = 0 + 0
l = 3  occ = 0 + 0
E1 = -138.75681097081562  E_coul = 39.72165435338976
cycle= 5 E= -99.0351566174259  delta_E= -2.23e-10  |g|=    0  |ddm|= 1.36e-05
    CPU time for cycle= 5      0.01 sec, wall time      0.00 sec
diis-norm(errvec)=6.40868e-06
diis-c [-3.33001300e-12 -3.65486924e-05 -1.93732355e-04  1.16488358e-03
 -5.46211159e-02  1.05368651e+00]
l = 0  e_0 = -26.4803734
l = 0  e_1 = -1.61628565
l = 0  e_2 = 0.0432265652
l = 0  e_3 = 0.326884599
l = 0  e_4 = 2.26273783
l = 0  e_5 = 24.9997961
l = 1  e_0 = -0.624038889
l = 1  e_1 = 0.0509589905
l = 1  e_2 = 0.290845515
l = 1  e_3 = 1.61872859
l = 1  e_4 = 23.111184
l = 2  e_0 = 0.422406578
l = 2  e_1 = 1.53847415
l = 2  e_2 = 4.91672197
l = 0  occ = 2 + 0
l = 1  occ = 0 + 1.667
l = 2  occ = 0 + 0
l = 3  occ = 0 + 0
E1 = -138.7567994123109  E_coul = 39.72164279488199
cycle= 6 E= -99.0351566174289  delta_E= -3.06e-12  |g|=    0  |ddm|= 4.28e-06
    CPU time for cycle= 6      0.01 sec, wall time      0.00 sec
diis-norm(errvec)=2.7276e-07
diis-c [-8.18711393e-15 -2.89190960e-05 -3.80811450e-05  4.93270085e-04
 -2.58364550e-03 -8.64304142e-02  1.08858779e+00]
l = 0  e_0 = -26.4803736
l = 0  e_1 = -1.6162857
l = 0  e_2 = 0.0432265665
l = 0  e_3 = 0.326884597
l = 0  e_4 = 2.2627378
l = 0  e_5 = 24.999796
l = 1  e_0 = -0.624038971
l = 1  e_1 = 0.0509589904
l = 1  e_2 = 0.290845511
l = 1  e_3 = 1.61872853
l = 1  e_4 = 23.1111838
l = 2  e_0 = 0.422406578
l = 2  e_1 = 1.53847413
l = 2  e_2 = 4.91672189
l = 0  occ = 2 + 0
l = 1  occ = 0 + 1.667
l = 2  occ = 0 + 0
l = 3  occ = 0 + 0
E1 = -138.75679991837242  E_coul = 39.72164330094347
cycle= 7 E= -99.035156617429  delta_E= -4.26e-14  |g|=    0  |ddm|= 1.93e-07
    CPU time for cycle= 7      0.00 sec, wall time      0.00 sec
diis-norm(errvec)=3.36259e-08
Linear dependence found in DIIS error vectors.
diis-c [-2.56711725e-15 -1.36830561e-05 -1.80963168e-05  2.31712780e-04
 -1.10361358e-03 -4.32720755e-02  4.99382189e-01  5.44793566e-01]
l = 0  e_0 = -26.4803736
l = 0  e_1 = -1.61628569
l = 0  e_2 = 0.0432265667
l = 0  e_3 = 0.326884598
l = 0  e_4 = 2.26273781
l = 0  e_5 = 24.999796
l = 1  e_0 = -0.624038966
l = 1  e_1 = 0.0509589904
l = 1  e_2 = 0.290845511
l = 1  e_3 = 1.61872854
l = 1  e_4 = 23.1111838
l = 2  e_0 = 0.422406579
l = 2  e_1 = 1.53847413
l = 2  e_2 = 4.91672189
l = 0  occ = 2 + 0
l = 1  occ = 0 + 1.667
l = 2  occ = 0 + 0
l = 3  occ = 0 + 0
E1 = -138.75679991061753  E_coul = 39.72164329318858
cycle= 8 E= -99.035156617429  delta_E=    0  |g|=    0  |ddm|= 1.37e-08
    CPU time for cycle= 8      0.01 sec, wall time      0.00 sec
diis-norm(errvec)=1.92895e-08
Linear dependence found in DIIS error vectors.
diis-c [-1.32152953e-15 -8.97991710e-06 -1.18983754e-05  1.51520208e-04
 -6.80127482e-04 -2.92949986e-02  3.23223945e-01  3.52851822e-01
  3.53768718e-01]
l = 0  e_0 = -26.4803736
l = 0  e_1 = -1.61628569
l = 0  e_2 = 0.0432265668
l = 0  e_3 = 0.326884599
l = 0  e_4 = 2.26273781
l = 0  e_5 = 24.999796
l = 1  e_0 = -0.624038965
l = 1  e_1 = 0.0509589904
l = 1  e_2 = 0.290845511
l = 1  e_3 = 1.61872854
l = 1  e_4 = 23.1111838
l = 2  e_0 = 0.422406579
l = 2  e_1 = 1.53847413
l = 2  e_2 = 4.9167219
l = 0  occ = 2 + 0
l = 1  occ = 0 + 1.667
l = 2  occ = 0 + 0
l = 3  occ = 0 + 0
E1 = -138.75679990710339  E_coul = 39.72164328967443
cycle= 9 E= -99.035156617429  delta_E=    0  |g|=    0  |ddm|= 5.09e-09
    CPU time for cycle= 9      0.01 sec, wall time      0.00 sec
diis-norm(errvec)=1.38894e-08
Linear dependence found in DIIS error vectors.
diis-c [-2.07954705e-15  2.61861515e-01  3.52984605e-06 -9.94770673e-09
  2.59735023e-04 -2.30386382e-02  2.38403629e-01  2.60907571e-01
  2.61602668e-01]
l = 0  e_0 = -26.4803736
l = 0  e_1 = -1.61628569
l = 0  e_2 = 0.0432265668
l = 0  e_3 = 0.326884599
l = 0  e_4 = 2.26273781
l = 0  e_5 = 24.999796
l = 1  e_0 = -0.624038965
l = 1  e_1 = 0.0509589904
l = 1  e_2 = 0.290845511
l = 1  e_3 = 1.61872854
l = 1  e_4 = 23.1111838
l = 2  e_0 = 0.422406579
l = 2  e_1 = 1.53847413
l = 2  e_2 = 4.91672189
l = 0  occ = 2 + 0
l = 1  occ = 0 + 1.667
l = 2  occ = 0 + 0
l = 3  occ = 0 + 0
E1 = -138.7567999134467  E_coul = 39.7216432960178
cycle= 10 E= -99.0351566174289  delta_E= 4.26e-14  |g|=    0  |ddm|= 9.94e-10
    CPU time for cycle= 10      0.01 sec, wall time      0.00 sec
diis-norm(errvec)=1.44089e-08
Linear dependence found in DIIS error vectors.
diis-c [-2.60060030e-16  2.56460121e-01  2.57841644e-01 -1.81784940e-06
  1.51856831e-04 -3.22690781e-03 -1.21420299e-02  2.46951760e-01
  2.53965373e-01]
l = 0  e_0 = -26.4803736
l = 0  e_1 = -1.61628568
l = 0  e_2 = 0.0432265669
l = 0  e_3 = 0.3268846
l = 0  e_4 = 2.26273781
l = 0  e_5 = 24.999796
l = 1  e_0 = -0.624038961
l = 1  e_1 = 0.0509589904
l = 1  e_2 = 0.290845511
l = 1  e_3 = 1.61872854
l = 1  e_4 = 23.1111838
l = 2  e_0 = 0.422406579
l = 2  e_1 = 1.53847413
l = 2  e_2 = 4.9167219
l = 0  occ = 2 + 0
l = 1  occ = 0 + 1.667
l = 2  occ = 0 + 0
l = 3  occ = 0 + 0
E1 = -138.75679990029434  E_coul = 39.721643282865294
cycle= 11 E= -99.035156617429  delta_E= -1.28e-13  |g|=    0  |ddm|= 9.19e-09
    CPU time for cycle= 11      0.01 sec, wall time      0.00 sec
diis-norm(errvec)=3.57989e-09
Linear dependence found in DIIS error vectors.
diis-c [-1.00143898e-15  2.03803834e-01  2.04763101e-01  2.06844546e-01
  7.85948007e-05 -2.61084750e-03 -1.28449360e-02  1.97747539e-01
  2.02218169e-01]
l = 0  e_0 = -26.4803736
l = 0  e_1 = -1.61628568
l = 0  e_2 = 0.0432265669
l = 0  e_3 = 0.3268846
l = 0  e_4 = 2.26273781
l = 0  e_5 = 24.999796
l = 1  e_0 = -0.624038961
l = 1  e_1 = 0.0509589904
l = 1  e_2 = 0.290845511
l = 1  e_3 = 1.61872854
l = 1  e_4 = 23.1111838
l = 2  e_0 = 0.422406579
l = 2  e_1 = 1.53847413
l = 2  e_2 = 4.9167219
l = 0  occ = 2 + 0
l = 1  occ = 0 + 1.667
l = 2  occ = 0 + 0
l = 3  occ = 0 + 0
E1 = -138.75679989869343  E_coul = 39.721643281264384
cycle= 12 E= -99.035156617429  delta_E=    0  |g|=    0  |ddm|= 1.08e-09
    CPU time for cycle= 12      0.01 sec, wall time      0.00 sec
diis-norm(errvec)=2.60172e-09
Linear dependence found in DIIS error vectors.
diis-c [-5.87570002e-17  1.68532987e-01  1.69404506e-01  1.70865782e-01
  1.71097150e-01 -2.03917937e-03 -9.00992450e-03  1.63831846e-01
  1.67316833e-01]
l = 0  e_0 = -26.4803736
l = 0  e_1 = -1.61628568
l = 0  e_2 = 0.043226567
l = 0  e_3 = 0.3268846
l = 0  e_4 = 2.26273781
l = 0  e_5 = 24.999796
l = 1  e_0 = -0.62403896
l = 1  e_1 = 0.0509589904
l = 1  e_2 = 0.290845512
l = 1  e_3 = 1.61872854
l = 1  e_4 = 23.1111838
l = 2  e_0 = 0.422406579
l = 2  e_1 = 1.53847413
l = 2  e_2 = 4.9167219
l = 0  occ = 2 + 0
l = 1  occ = 0 + 1.667
l = 2  occ = 0 + 0
l = 3  occ = 0 + 0
E1 = -138.75679989765882  E_coul = 39.72164328022987
cycle= 13 E= -99.035156617429  delta_E= 8.53e-14  |g|=    0  |ddm|= 4.49e-10
    CPU time for cycle= 13      0.00 sec, wall time      0.00 sec
diis-norm(errvec)=1.89215e-09
Linear dependence found in DIIS error vectors.
diis-c [-1.62349090e-16  1.41411827e-01  1.42124045e-01  1.40732459e-01
  1.40662154e-01  1.40460386e-01  1.03154644e-02  1.42526425e-01
  1.41767241e-01]
l = 0  e_0 = -26.4803736
l = 0  e_1 = -1.61628568
l = 0  e_2 = 0.0432265669
l = 0  e_3 = 0.3268846
l = 0  e_4 = 2.26273781
l = 0  e_5 = 24.999796
l = 1  e_0 = -0.62403896
l = 1  e_1 = 0.0509589904
l = 1  e_2 = 0.290845512
l = 1  e_3 = 1.61872854
l = 1  e_4 = 23.1111838
l = 2  e_0 = 0.422406579
l = 2  e_1 = 1.53847413
l = 2  e_2 = 4.9167219
l = 0  occ = 2 + 0
l = 1  occ = 0 + 1.667
l = 2  occ = 0 + 0
l = 3  occ = 0 + 0
E1 = -138.75679989081874  E_coul = 39.72164327338976
cycle= 14 E= -99.035156617429  delta_E= -2.84e-14  |g|=    0  |ddm|= 1.03e-09
    CPU time for cycle= 14      0.01 sec, wall time      0.00 sec
diis-norm(errvec)=2.86847e-09
Linear dependence found in DIIS error vectors.
diis-c [-3.83815955e-16  1.25000000e-01  1.25000000e-01  1.25000000e-01
  1.25000000e-01  1.25000000e-01  1.25000000e-01  1.25000000e-01
  1.25000000e-01]
l = 0  e_0 = -26.4803736
l = 0  e_1 = -1.61628568
l = 0  e_2 = 0.043226567
l = 0  e_3 = 0.3268846
l = 0  e_4 = 2.26273781
l = 0  e_5 = 24.999796
l = 1  e_0 = -0.624038959
l = 1  e_1 = 0.0509589904
l = 1  e_2 = 0.290845512
l = 1  e_3 = 1.61872854
l = 1  e_4 = 23.1111838
l = 2  e_0 = 0.422406579
l = 2  e_1 = 1.53847413
l = 2  e_2 = 4.9167219
l = 0  occ = 2 + 0
l = 1  occ = 0 + 1.667
l = 2  occ = 0 + 0
l = 3  occ = 0 + 0
E1 = -138.75679988981494  E_coul = 39.721643272385975
cycle= 15 E= -99.035156617429  delta_E= 1.42e-14  |g|=    0  |ddm|= 1.08e-09
    CPU time for cycle= 15      0.01 sec, wall time      0.00 sec
diis-norm(errvec)=3.01464e-09
Linear dependence found in DIIS error vectors.
diis-c [-3.83815955e-16  1.25000000e-01  1.25000000e-01  1.25000000e-01
  1.25000000e-01  1.25000000e-01  1.25000000e-01  1.25000000e-01
  1.25000000e-01]
l = 0  e_0 = -26.4803736
l = 0  e_1 = -1.61628568
l = 0  e_2 = 0.043226567
l = 0  e_3 = 0.3268846
l = 0  e_4 = 2.26273781
l = 0  e_5 = 24.999796
l = 1  e_0 = -0.62403896
l = 1  e_1 = 0.0509589904
l = 1  e_2 = 0.290845512
l = 1  e_3 = 1.61872854
l = 1  e_4 = 23.1111838
l = 2  e_0 = 0.422406579
l = 2  e_1 = 1.53847413
l = 2  e_2 = 4.9167219
l = 0  occ = 2 + 0
l = 1  occ = 0 + 1.667
l = 2  occ = 0 + 0
l = 3  occ = 0 + 0
E1 = -138.75679989258123  E_coul = 39.721643275152196
cycle= 16 E= -99.035156617429  delta_E= -7.11e-14  |g|=    0  |ddm|= 3.64e-10
    CPU time for cycle= 16      0.01 sec, wall time      0.00 sec
diis-norm(errvec)=1.79031e-09
Linear dependence found in DIIS error vectors.
diis-c [-2.89052492e-16  1.25000000e-01  1.25000000e-01  1.25000000e-01
  1.25000000e-01  1.25000000e-01  1.25000000e-01  1.25000000e-01
  1.25000000e-01]
l = 0  e_0 = -26.4803736
l = 0  e_1 = -1.61628568
l = 0  e_2 = 0.043226567
l = 0  e_3 = 0.3268846
l = 0  e_4 = 2.26273781
l = 0  e_5 = 24.999796
l = 1  e_0 = -0.62403896
l = 1  e_1 = 0.0509589904
l = 1  e_2 = 0.290845512
l = 1  e_3 = 1.61872854
l = 1  e_4 = 23.1111838
l = 2  e_0 = 0.422406579
l = 2  e_1 = 1.53847413
l = 2  e_2 = 4.9167219
l = 0  occ = 2 + 0
l = 1  occ = 0 + 1.667
l = 2  occ = 0 + 0
l = 3  occ = 0 + 0
E1 = -138.75679989423688  E_coul = 39.72164327680786
cycle= 17 E= -99.035156617429  delta_E= 2.84e-14  |g|=    0  |ddm|= 2.19e-10
    CPU time for cycle= 17      0.00 sec, wall time      0.00 sec
diis-norm(errvec)=1.07471e-09
Linear dependence found in DIIS error vectors.
diis-c [-2.89052492e-16  1.25000000e-01  1.25000000e-01  1.25000000e-01
  1.25000000e-01  1.25000000e-01  1.25000000e-01  1.25000000e-01
  1.25000000e-01]
l = 0  e_0 = -26.4803736
l = 0  e_1 = -1.61628568
l = 0  e_2 = 0.043226567
l = 0  e_3 = 0.3268846
l = 0  e_4 = 2.26273781
l = 0  e_5 = 24.999796
l = 1  e_0 = -0.62403896
l = 1  e_1 = 0.0509589904
l = 1  e_2 = 0.290845512
l = 1  e_3 = 1.61872854
l = 1  e_4 = 23.1111838
l = 2  e_0 = 0.422406579
l = 2  e_1 = 1.53847413
l = 2  e_2 = 4.9167219
l = 0  occ = 2 + 0
l = 1  occ = 0 + 1.667
l = 2  occ = 0 + 0
l = 3  occ = 0 + 0
E1 = -138.7567998954134  E_coul = 39.72164327798441
cycle= 18 E= -99.035156617429  delta_E= 2.84e-14  |g|=    0  |ddm|= 1.57e-10
    CPU time for cycle= 18      0.01 sec, wall time      0.00 sec
diis-norm(errvec)=6.02149e-10
Linear dependence found in DIIS error vectors.
diis-c [-2.89052492e-16  1.25000000e-01  1.25000000e-01  1.25000000e-01
  1.25000000e-01  1.25000000e-01  1.25000000e-01  1.25000000e-01
  1.25000000e-01]
l = 0  e_0 = -26.4803736
l = 0  e_1 = -1.61628568
l = 0  e_2 = 0.043226567
l = 0  e_3 = 0.3268846
l = 0  e_4 = 2.26273781
l = 0  e_5 = 24.999796
l = 1  e_0 = -0.62403896
l = 1  e_1 = 0.0509589904
l = 1  e_2 = 0.290845512
l = 1  e_3 = 1.61872854
l = 1  e_4 = 23.1111838
l = 2  e_0 = 0.422406579
l = 2  e_1 = 1.53847413
l = 2  e_2 = 4.9167219
l = 0  occ = 2 + 0
l = 1  occ = 0 + 1.667
l = 2  occ = 0 + 0
l = 3  occ = 0 + 0
E1 = -138.75679989683204  E_coul = 39.72164327940298
cycle= 19 E= -99.0351566174291  delta_E= -7.11e-14  |g|=    0  |ddm|= 1.92e-10
    CPU time for cycle= 19      0.01 sec, wall time      0.00 sec
diis-norm(errvec)=4.78654e-10
Linear dependence found in DIIS error vectors.
diis-c [-2.89052492e-16  1.25000000e-01  1.25000000e-01  1.25000000e-01
  1.25000000e-01  1.25000000e-01  1.25000000e-01  1.25000000e-01
  1.25000000e-01]
l = 0  e_0 = -26.4803736
l = 0  e_1 = -1.61628568
l = 0  e_2 = 0.043226567
l = 0  e_3 = 0.3268846
l = 0  e_4 = 2.26273781
l = 0  e_5 = 24.999796
l = 1  e_0 = -0.62403896
l = 1  e_1 = 0.0509589904
l = 1  e_2 = 0.290845512
l = 1  e_3 = 1.61872854
l = 1  e_4 = 23.1111838
l = 2  e_0 = 0.422406579
l = 2  e_1 = 1.53847413
l = 2  e_2 = 4.9167219
l = 0  occ = 2 + 0
l = 1  occ = 0 + 1.667
l = 2  occ = 0 + 0
l = 3  occ = 0 + 0
E1 = -138.75679989711585  E_coul = 39.72164327968686
cycle= 20 E= -99.035156617429  delta_E= 5.68e-14  |g|=    0  |ddm|= 3.91e-11
    CPU time for cycle= 20      0.01 sec, wall time      0.00 sec
l = 0  e_0 = -26.4803736
l = 0  e_1 = -1.61628568
l = 0  e_2 = 0.043226567
l = 0  e_3 = 0.3268846
l = 0  e_4 = 2.26273781
l = 0  e_5 = 24.999796
l = 1  e_0 = -0.62403896
l = 1  e_1 = 0.0509589904
l = 1  e_2 = 0.290845512
l = 1  e_3 = 1.61872854
l = 1  e_4 = 23.1111838
l = 2  e_0 = 0.42240658
l = 2  e_1 = 1.53847413
l = 2  e_2 = 4.9167219
l = 0  occ = 2 + 0
l = 1  occ = 0 + 1.667
l = 2  occ = 0 + 0
l = 3  occ = 0 + 0
E1 = -138.75679989609472  E_coul = 39.72164327866575
Extra cycle  E= -99.035156617429  delta_E= 2.84e-14  |g|=    0  |ddm|= 3.91e-11
    CPU time for scf_cycle      0.19 sec, wall time      0.05 sec
    CPU time for SCF      0.20 sec, wall time      0.05 sec
Atomic HF for atom  F  converged. SCF energy = -99.035156617429

Atom F, E = -99.0351566174
Nelec from initial guess = (np.float64(4.500000000000002), np.float64(4.500000000000002))
E1 = -138.75679989609472  Ecoul = 39.72164327866576
init E= -99.035156617429
    CPU time for initialize scf      0.23 sec, wall time      0.06 sec
alpha HOMO (B2u) = -0.624038959930786  LUMO (Ag) = 0.0432265669931025
alpha irrep_nelec = [2, 0, 0, 0, 1, 1, 1]
beta  irrep_nelec = [2, 0, 0, 0, 0, 0, 1]
alpha-Ag nocc = 2  HOMO = -1.61628567924835  LUMO = 0.0432265669931025
   mo_energy = [-26.48037359  -1.61628568   0.04322657   0.3268846    0.42240658
   0.42240658   1.53847413   1.53847413   2.26273781   4.9167219
   4.9167219   24.99979599]
alpha-B1g nocc = 0
   mo_energy = [0.42240658 1.53847413 4.9167219 ]
alpha-B2g nocc = 0
   mo_energy = [0.42240658 1.53847413 4.9167219 ]
alpha-B3g nocc = 0
   mo_energy = [0.42240658 1.53847413 4.9167219 ]
alpha-B1u nocc = 1  HOMO = -0.624038959930787  LUMO = 0.0509589903761746
   mo_energy = [-0.62403896  0.05095899  0.29084551  1.61872854 23.1111838 ]
alpha-B2u nocc = 1  HOMO = -0.624038959930786  LUMO = 0.0509589903761741
   mo_energy = [-0.62403896  0.05095899  0.29084551  1.61872854 23.1111838 ]
alpha-B3u nocc = 1  HOMO = -0.624038959930787  LUMO = 0.0509589903761741
   mo_energy = [-0.62403896  0.05095899  0.29084551  1.61872854 23.1111838 ]
beta-Ag nocc = 2  HOMO = -1.61628567924835  LUMO = 0.0432265669931025
   mo_energy = [-26.48037359  -1.61628568   0.04322657   0.3268846    0.42240658
   0.42240658   1.53847413   1.53847413   2.26273781   4.9167219
   4.9167219   24.99979599]
beta-B1g nocc = 0
   mo_energy = [0.42240658 1.53847413 4.9167219 ]
beta-B2g nocc = 0
   mo_energy = [0.42240658 1.53847413 4.9167219 ]
beta-B3g nocc = 0
   mo_energy = [0.42240658 1.53847413 4.9167219 ]
beta-B1u nocc = 0
   mo_energy = [-0.62403896  0.05095899  0.29084551  1.61872854 23.1111838 ]
beta-B2u nocc = 0
   mo_energy = [-0.62403896  0.05095899  0.29084551  1.61872854 23.1111838 ]
beta-B3u nocc = 1  HOMO = -0.624038959930787  LUMO = 0.0509589903761741
   mo_energy = [-0.62403896  0.05095899  0.29084551  1.61872854 23.1111838 ]
multiplicity <S^2> = 2  2S+1 = 3
E1 = -130.76083343459712  Ecoul = 32.10291516329272
cycle= 1 E= -98.6579182713044  delta_E= 0.377  |g|= 0.618  |ddm|= 0.806
    CPU time for cycle= 1      0.03 sec, wall time      0.01 sec
diis-norm(errvec)=0.873362
diis-c [-0.7627619  1.       ]
alpha HOMO (B3u) = -1.60191891606361  LUMO (Ag) = -0.178891939943175
alpha irrep_nelec = [2, 0, 0, 0, 1, 1, 1]
beta  irrep_nelec = [2, 0, 0, 0, 0, 0, 1]
alpha-Ag nocc = 2  HOMO = -2.59136453145421  LUMO = -0.178891939943175
   mo_energy = [-2.77336928e+01 -2.59136453e+00 -1.78891940e-01  6.18077893e-03
  1.12095870e-01  1.25560992e-01  9.56531865e-01  1.00239334e+00
  1.56185200e+00  4.02394712e+00  4.11170501e+00  2.38677373e+01]
alpha-B1g nocc = 0
   mo_energy = [0.12182505 0.99119777 4.08912922]
alpha-B2g nocc = 0
   mo_energy = [0.12182505 0.99119777 4.08912922]
alpha-B3g nocc = 0
   mo_energy = [0.11209587 0.95653186 4.02394712]
alpha-B1u nocc = 1  HOMO = -1.6974829441429  LUMO = -0.11105431406425
   mo_energy = [-1.69748294e+00 -1.11054314e-01  6.94063351e-03  9.36233594e-01
  2.18985208e+01]
alpha-B2u nocc = 1  HOMO = -1.6974829441429  LUMO = -0.11105431406425
   mo_energy = [-1.69748294e+00 -1.11054314e-01  6.94063351e-03  9.36233594e-01
  2.18985208e+01]
alpha-B3u nocc = 1  HOMO = -1.60191891606361  LUMO = -0.105731899993218
   mo_energy = [-1.60191892e+00 -1.05731900e-01  1.71288908e-02  9.87885757e-01
  2.19654199e+01]
beta-Ag nocc = 2  HOMO = -2.2339020733712  LUMO = -0.167124754809614
   mo_energy = [-2.76541119e+01 -2.23390207e+00 -1.67124755e-01  2.39971344e-02
  1.29293498e-01  1.32471579e-01  1.04938910e+00  1.06317555e+00
  1.64515675e+00  4.19562380e+00  4.21616997e+00  2.39393265e+01]
beta-B1g nocc = 0
   mo_energy = [0.13154522 1.052409   4.20019312]
beta-B2g nocc = 0
   mo_energy = [0.13154522 1.052409   4.20019312]
beta-B3g nocc = 0
   mo_energy = [0.1292935  1.06317555 4.21616997]
beta-B1u nocc = 0
   mo_energy = [-0.71511612 -0.1024499   0.02990144  1.0763504  22.02246706]
beta-B2u nocc = 0
   mo_energy = [-0.71511612 -0.1024499   0.02990144  1.0763504  22.02246706]
beta-B3u nocc = 1  HOMO = -1.50715556335892  LUMO = -0.104201633513821
   mo_energy = [-1.50715556e+00 -1.04201634e-01  2.15591814e-02  1.01791995e+00
  2.19949941e+01]
multiplicity <S^2> = 2.0014729  2S+1 = 3.0009817
E1 = -133.47690832587375  Ecoul = 34.68189301343196
cycle= 2 E= -98.7950153124418  delta_E= -0.137  |g|= 0.195  |ddm|= 0.333
    CPU time for cycle= 2      0.03 sec, wall time      0.01 sec
diis-norm(errvec)=0.275671
diis-c [-0.03474546  0.1922667   0.8077333 ]
alpha HOMO (B3u) = -1.42480651621779  LUMO (Ag) = -0.167609594807448
alpha irrep_nelec = [2, 0, 0, 0, 1, 1, 1]
beta  irrep_nelec = [2, 0, 0, 0, 0, 0, 1]
alpha-Ag nocc = 2  HOMO = -2.41378592212122  LUMO = -0.167609594807448
   mo_energy = [-2.72250721e+01 -2.41378592e+00 -1.67609595e-01  2.30604868e-02
  1.23909536e-01  1.35001778e-01  1.02115806e+00  1.06605261e+00
  1.68194194e+00  4.18199938e+00  4.27879543e+00  2.42740107e+01]
alpha-B1g nocc = 0
   mo_energy = [0.13195056 1.05488961 4.25370017]
alpha-B2g nocc = 0
   mo_energy = [0.13195056 1.05488961 4.25370017]
alpha-B3g nocc = 0
   mo_energy = [0.12390954 1.02115806 4.18199938]
alpha-B1u nocc = 1  HOMO = -1.53574740761842  LUMO = -0.106690181906332
   mo_energy = [-1.53574741e+00 -1.06690182e-01  1.75564705e-02  1.03196609e+00
  2.23399678e+01]
alpha-B2u nocc = 1  HOMO = -1.53574740761843  LUMO = -0.106690181906332
   mo_energy = [-1.53574741e+00 -1.06690182e-01  1.75564705e-02  1.03196609e+00
  2.23399678e+01]
alpha-B3u nocc = 1  HOMO = -1.42480651621779  LUMO = -0.102545132561353
   mo_energy = [-1.42480652 -0.10254513  0.02718763  1.08876642 22.41770267]
beta-Ag nocc = 2  HOMO = -2.02880099132054  LUMO = -0.160193901522637
   mo_energy = [-27.12780099  -2.02880099  -0.1601939    0.03860787   0.13427924
   0.13888149   1.10446888   1.11454704   1.77644812   4.3730781
   4.40326415  24.36088634]
beta-B1g nocc = 0
   mo_energy = [0.137487   1.10658805 4.3797737 ]
beta-B2g nocc = 0
   mo_energy = [0.137487   1.10658805 4.3797737 ]
beta-B3g nocc = 0
   mo_energy = [0.13427924 1.11454704 4.40326415]
beta-B1u nocc = 0
   mo_energy = [-0.51631523 -0.09705638  0.04908652  1.21953909 22.49333076]
beta-B2u nocc = 0
   mo_energy = [-0.51631523 -0.09705638  0.04908652  1.21953909 22.49333076]
beta-B3u nocc = 1  HOMO = -1.3268475295715  LUMO = -0.101462486557309
   mo_energy = [-1.32684753 -0.10146249  0.03103622  1.12168273 22.45394546]
multiplicity <S^2> = 2.0029945  2S+1 = 3.0019957
E1 = -133.10151318384172  Ecoul = 34.29976806722268
cycle= 3 E= -98.801745116619  delta_E= -0.00673  |g|= 0.0304  |ddm|= 0.141
    CPU time for cycle= 3      0.03 sec, wall time      0.01 sec
diis-norm(errvec)=0.0430562
diis-c [-1.00410813e-03 -2.98745809e-02 -1.55297116e-01  1.18517170e+00]
alpha HOMO (B3u) = -1.41284955586358  LUMO (Ag) = -0.165789763711145
alpha irrep_nelec = [2, 0, 0, 0, 1, 1, 1]
beta  irrep_nelec = [2, 0, 0, 0, 0, 0, 1]
alpha-Ag nocc = 2  HOMO = -2.40353008680881  LUMO = -0.165789763711145
   mo_energy = [-2.72018497e+01 -2.40353009e+00 -1.65789764e-01  2.56766960e-02
  1.26135808e-01  1.37194194e-01  1.02887004e+00  1.07452912e+00
  1.69243731e+00  4.19347763e+00  4.29303042e+00  2.42962070e+01]
alpha-B1g nocc = 0
   mo_energy = [0.13415135 1.06312856 4.267153  ]
alpha-B2g nocc = 0
   mo_energy = [0.13415135 1.06312856 4.267153  ]
alpha-B3g nocc = 0
   mo_energy = [0.12613581 1.02887004 4.19347763]
alpha-B1u nocc = 1  HOMO = -1.53207593052418  LUMO = -0.106162822218752
   mo_energy = [-1.53207593e+00 -1.06162822e-01  1.88851345e-02  1.03910207e+00
  2.23627716e+01]
alpha-B2u nocc = 1  HOMO = -1.53207593052418  LUMO = -0.106162822218752
   mo_energy = [-1.53207593e+00 -1.06162822e-01  1.88851345e-02  1.03910207e+00
  2.23627716e+01]
alpha-B3u nocc = 1  HOMO = -1.41284955586358  LUMO = -0.102018833092678
   mo_energy = [-1.41284956 -0.10201883  0.02879486  1.09850294 22.44127264]
beta-Ag nocc = 2  HOMO = -2.00331062955792  LUMO = -0.159107731375538
   mo_energy = [-27.1002841   -2.00331063  -0.15910773   0.04095694   0.13480027
   0.13993608   1.10955313   1.12013898   1.79313805   4.39107326
   4.4227993   24.38911171]
beta-B1g nocc = 0
   mo_energy = [0.13835987 1.11172531 4.39808661]
beta-B2g nocc = 0
   mo_energy = [0.13835987 1.11172531 4.39808661]
beta-B3g nocc = 0
   mo_energy = [0.13480027 1.12013898 4.4227993 ]
beta-B1u nocc = 0
   mo_energy = [-0.49858492 -0.09643897  0.05152823  1.23354456 22.52044706]
beta-B2u nocc = 0
   mo_energy = [-0.49858492 -0.09643897  0.05152823  1.23354456 22.52044706]
beta-B3u nocc = 1  HOMO = -1.30969776952631  LUMO = -0.100978405109598
   mo_energy = [-1.30969777 -0.10097841  0.03266099  1.13413357 22.48137859]
multiplicity <S^2> = 2.004286  2S+1 = 3.002856
E1 = -133.09028589373696  Ecoul = 34.28807092327979
cycle= 4 E= -98.8022149704572  delta_E= -0.00047  |g|= 0.00777  |ddm|= 0.0428
    CPU time for cycle= 4      0.03 sec, wall time      0.01 sec
diis-norm(errvec)=0.0109895
diis-c [-3.87778135e-05  1.72476051e-03  3.60932807e-02 -3.85711710e-01
  1.34789367e+00]
alpha HOMO (B3u) = -1.4150679229695  LUMO (Ag) = -0.165819010995802
alpha irrep_nelec = [2, 0, 0, 0, 1, 1, 1]
beta  irrep_nelec = [2, 0, 0, 0, 0, 0, 1]
alpha-Ag nocc = 2  HOMO = -2.40618482732775  LUMO = -0.165819010995802
   mo_energy = [-2.72056090e+01 -2.40618483e+00 -1.65819011e-01  2.56074463e-02
  1.26172894e-01  1.37378192e-01  1.02888247e+00  1.07474970e+00
  1.69108180e+00  4.19145962e+00  4.29110881e+00  2.42929162e+01]
alpha-B1g nocc = 0
   mo_energy = [0.13429154 1.06330173 4.26520798]
alpha-B2g nocc = 0
   mo_energy = [0.13429154 1.06330173 4.26520798]
alpha-B3g nocc = 0
   mo_energy = [0.12617289 1.02888247 4.19145962]
alpha-B1u nocc = 1  HOMO = -1.53545124259015  LUMO = -0.106268737607485
   mo_energy = [-1.53545124e+00 -1.06268738e-01  1.86414741e-02  1.03743341e+00
  2.23596267e+01]
alpha-B2u nocc = 1  HOMO = -1.53545124259016  LUMO = -0.106268737607485
   mo_energy = [-1.53545124e+00 -1.06268738e-01  1.86414741e-02  1.03743341e+00
  2.23596267e+01]
alpha-B3u nocc = 1  HOMO = -1.4150679229695  LUMO = -0.102035336645923
   mo_energy = [-1.41506792 -0.10203534  0.02871878  1.09738208 22.437816  ]
beta-Ag nocc = 2  HOMO = -2.0015299742499  LUMO = -0.159099243351221
   mo_energy = [-27.10119627  -2.00152997  -0.15909924   0.040977     0.13461244
   0.13979706   1.10848107   1.11935552   1.79363769   4.39068595
   4.42216206  24.38850501]
beta-B1g nocc = 0
   mo_energy = [0.13820448 1.1107159  4.39765276]
beta-B2g nocc = 0
   mo_energy = [0.13820448 1.1107159  4.39765276]
beta-B3g nocc = 0
   mo_energy = [0.13461244 1.11935552 4.42216206]
beta-B1u nocc = 0
   mo_energy = [-0.49923691 -0.09645381  0.05148683  1.23313367 22.51898298]
beta-B2u nocc = 0
   mo_energy = [-0.49923691 -0.09645381  0.05148683  1.23313367 22.51898298]
beta-B3u nocc = 1  HOMO = -1.30784345968808  LUMO = -0.100930277236282
   mo_energy = [-1.30784346 -0.10093028  0.03278996  1.13478723 22.48019456]
multiplicity <S^2> = 2.0048021  2S+1 = 3.0031997
E1 = -133.09647089627163  Ecoul = 34.29421662482972
cycle= 5 E= -98.8022542714419  delta_E= -3.93e-05  |g|= 0.00148  |ddm|= 0.00971
    CPU time for cycle= 5      0.03 sec, wall time      0.01 sec
diis-norm(errvec)=0.00209659
diis-c [-6.38146999e-07  3.76094732e-04 -8.29025439e-03  1.00776544e-01
 -4.95910648e-01  1.40304826e+00]
alpha HOMO (B3u) = -1.41571526024912  LUMO (Ag) = -0.165839630748773
alpha irrep_nelec = [2, 0, 0, 0, 1, 1, 1]
beta  irrep_nelec = [2, 0, 0, 0, 0, 0, 1]
alpha-Ag nocc = 2  HOMO = -2.40661644648793  LUMO = -0.165839630748773
   mo_energy = [-2.72057524e+01 -2.40661645e+00 -1.65839631e-01  2.55826826e-02
  1.26151035e-01  1.37396815e-01  1.02893014e+00  1.07482480e+00
  1.69090272e+00  4.19134363e+00  4.29081900e+00  2.42927333e+01]
alpha-B1g nocc = 0
   mo_energy = [0.13429744 1.06337352 4.26496642]
alpha-B2g nocc = 0
   mo_energy = [0.13429744 1.06337352 4.26496642]
alpha-B3g nocc = 0
   mo_energy = [0.12615104 1.02893014 4.19134363]
alpha-B1u nocc = 1  HOMO = -1.53574218300748  LUMO = -0.106279490285904
   mo_energy = [-1.53574218e+00 -1.06279490e-01  1.86149920e-02  1.03729126e+00
  2.23596118e+01]
alpha-B2u nocc = 1  HOMO = -1.53574218300748  LUMO = -0.106279490285905
   mo_energy = [-1.53574218e+00 -1.06279490e-01  1.86149920e-02  1.03729126e+00
  2.23596118e+01]
alpha-B3u nocc = 1  HOMO = -1.41571526024912  LUMO = -0.102036783148512
   mo_energy = [-1.41571526 -0.10203678  0.02870232  1.09715603 22.43757956]
beta-Ag nocc = 2  HOMO = -2.00124473724577  LUMO = -0.159113087478366
   mo_energy = [-27.10077921  -2.00124474  -0.15911309   0.04095614   0.13457523
   0.13973698   1.10828791   1.11921591   1.79372877   4.39088438
   4.42216605  24.38882605]
beta-B1g nocc = 0
   mo_energy = [0.13815164 1.11053385 4.39780698]
beta-B2g nocc = 0
   mo_energy = [0.13815164 1.11053385 4.39780698]
beta-B3g nocc = 0
   mo_energy = [0.13457523 1.11921591 4.42216605]
beta-B1u nocc = 0
   mo_energy = [-0.499263   -0.09645378  0.05148807  1.2331748  22.51921242]
beta-B2u nocc = 0
   mo_energy = [-0.499263   -0.09645378  0.05148807  1.2331748  22.51921242]
beta-B3u nocc = 1  HOMO = -1.30686730922166  LUMO = -0.100909402627631
   mo_energy = [-1.30686731 -0.1009094   0.03284868  1.1352003  22.48066442]
multiplicity <S^2> = 2.0049065  2S+1 = 3.0032692
E1 = -133.09607429057561  Ecoul = 34.29381845432974
cycle= 6 E= -98.8022558362459  delta_E= -1.56e-06  |g|= 0.000164  |ddm|= 0.00205
    CPU time for cycle= 6      0.03 sec, wall time      0.01 sec
diis-norm(errvec)=0.000232272
diis-c [-1.18620784e-08 -1.00322542e-04  1.82227911e-03 -2.22314469e-02
  1.14963346e-01 -3.95297453e-01  1.30084360e+00]
alpha HOMO (B3u) = -1.41581567627775  LUMO (Ag) = -0.165836500509086
alpha irrep_nelec = [2, 0, 0, 0, 1, 1, 1]
beta  irrep_nelec = [2, 0, 0, 0, 0, 0, 1]
alpha-Ag nocc = 2  HOMO = -2.40664327582973  LUMO = -0.165836500509086
   mo_energy = [-2.72057513e+01 -2.40664328e+00 -1.65836501e-01  2.55858726e-02
  1.26153614e-01  1.37404250e-01  1.02893314e+00  1.07483990e+00
  1.69089971e+00  4.19135195e+00  4.29079858e+00  2.42927306e+01]
alpha-B1g nocc = 0
   mo_energy = [0.13430327 1.06338606 4.26495403]
alpha-B2g nocc = 0
   mo_energy = [0.13430327 1.06338606 4.26495403]
alpha-B3g nocc = 0
   mo_energy = [0.12615361 1.02893314 4.19135195]
alpha-B1u nocc = 1  HOMO = -1.53573799061559  LUMO = -0.106277740530163
   mo_energy = [-1.53573799e+00 -1.06277741e-01  1.86190815e-02  1.03730453e+00
  2.23596156e+01]
alpha-B2u nocc = 1  HOMO = -1.53573799061558  LUMO = -0.106277740530162
   mo_energy = [-1.53573799e+00 -1.06277741e-01  1.86190815e-02  1.03730453e+00
  2.23596156e+01]
alpha-B3u nocc = 1  HOMO = -1.41581567627775  LUMO = -0.102037103672553
   mo_energy = [-1.41581568 -0.1020371   0.0287006   1.09712184 22.43753747]
beta-Ag nocc = 2  HOMO = -2.00123786029316  LUMO = -0.159114537652466
   mo_energy = [-27.10078262  -2.00123786  -0.15911454   0.04095398   0.13457611
   0.13973256   1.10828115   1.11922085   1.79372742   4.3909161
   4.42217192  24.38882459]
beta-B1g nocc = 0
   mo_energy = [0.13814886 1.11052933 4.39783286]
beta-B2g nocc = 0
   mo_energy = [0.13814886 1.11052933 4.39783286]
beta-B3g nocc = 0
   mo_energy = [0.13457611 1.11922085 4.42217192]
beta-B1u nocc = 0
   mo_energy = [-0.49925791 -0.09645377  0.05148823  1.23317789 22.51921249]
beta-B2u nocc = 0
   mo_energy = [-0.49925791 -0.09645377  0.05148823  1.23317789 22.51921249]
beta-B3u nocc = 1  HOMO = -1.30675617322518  LUMO = -0.10090763719
   mo_energy = [-1.30675617 -0.10090764  0.0328546   1.13524774 22.48070755]
multiplicity <S^2> = 2.0049168  2S+1 = 3.0032761
E1 = -133.09603899437457  Ecoul = 34.29378313950411
cycle= 7 E= -98.8022558548705  delta_E= -1.86e-08  |g|= 2.09e-05  |ddm|= 0.000201
    CPU time for cycle= 7      0.03 sec, wall time      0.01 sec
diis-norm(errvec)=2.95257e-05
diis-c [-1.29797826e-10  1.48743276e-05 -3.26549984e-04  3.97765390e-03
 -2.08311352e-02  7.74140267e-02 -3.47286142e-01  1.28703727e+00]
alpha HOMO (B3u) = -1.41582779950588  LUMO (Ag) = -0.165836424226159
alpha irrep_nelec = [2, 0, 0, 0, 1, 1, 1]
beta  irrep_nelec = [2, 0, 0, 0, 0, 0, 1]
alpha-Ag nocc = 2  HOMO = -2.40664230490379  LUMO = -0.165836424226159
   mo_energy = [-2.72057547e+01 -2.40664230e+00 -1.65836424e-01  2.55859352e-02
  1.26153637e-01  1.37404762e-01  1.02893193e+00  1.07484118e+00
  1.69090006e+00  4.19135262e+00  4.29079627e+00  2.42927286e+01]
alpha-B1g nocc = 0
   mo_energy = [0.13430362 1.06338676 4.26495259]
alpha-B2g nocc = 0
   mo_energy = [0.13430362 1.06338676 4.26495259]
alpha-B3g nocc = 0
   mo_energy = [0.12615364 1.02893193 4.19135262]
alpha-B1u nocc = 1  HOMO = -1.53573242595156  LUMO = -0.106277829957552
   mo_energy = [-1.53573243e+00 -1.06277830e-01  1.86189652e-02  1.03730563e+00
  2.23596139e+01]
alpha-B2u nocc = 1  HOMO = -1.53573242595156  LUMO = -0.106277829957552
   mo_energy = [-1.53573243e+00 -1.06277830e-01  1.86189652e-02  1.03730563e+00
  2.23596139e+01]
alpha-B3u nocc = 1  HOMO = -1.41582779950588  LUMO = -0.102037581554819
   mo_energy = [-1.4158278  -0.10203758  0.0286994   1.09711547 22.43753035]
beta-Ag nocc = 2  HOMO = -2.00123927779181  LUMO = -0.159114569359269
   mo_energy = [-27.10078491  -2.00123928  -0.15911457   0.04095391   0.13457644
   0.1397321    1.10827989   1.11922166   1.79372692   4.39091669
   4.42217061  24.38882259]
beta-B1g nocc = 0
   mo_energy = [0.13814863 1.11052855 4.39783305]
beta-B2g nocc = 0
   mo_energy = [0.13814863 1.11052855 4.39783305]
beta-B3g nocc = 0
   mo_energy = [0.13457644 1.11922166 4.42217061]
beta-B1u nocc = 0
   mo_energy = [-0.49925844 -0.09645377  0.05148816  1.23317707 22.51920911]
beta-B2u nocc = 0
   mo_energy = [-0.49925844 -0.09645377  0.05148816  1.23317707 22.51920911]
beta-B3u nocc = 1  HOMO = -1.3067537199656  LUMO = -0.100907756629394
   mo_energy = [-1.30675372 -0.10090776  0.03285445  1.13524935 22.48070942]
multiplicity <S^2> = 2.0049179  2S+1 = 3.0032768
E1 = -133.09604886424188  Ecoul = 34.293793009089704
cycle= 8 E= -98.8022558551522  delta_E= -2.82e-10  |g|= 1.96e-06  |ddm|= 2.88e-05
    CPU time for cycle= 8      0.03 sec, wall time      0.01 sec
diis-norm(errvec)=2.76479e-06
diis-c [-1.01314328e-12 -1.34902945e-06  5.29040553e-05 -6.59870549e-04
  3.47245607e-03 -1.32178905e-02  6.56955295e-02 -2.98718712e-01
  1.24337693e+00]
alpha HOMO (B3u) = -1.41582832025103  LUMO (Ag) = -0.16583638123088
alpha irrep_nelec = [2, 0, 0, 0, 1, 1, 1]
beta  irrep_nelec = [2, 0, 0, 0, 0, 0, 1]
alpha-Ag nocc = 2  HOMO = -2.40664193565607  LUMO = -0.16583638123088
   mo_energy = [-2.72057539e+01 -2.40664194e+00 -1.65836381e-01  2.55860008e-02
  1.26153653e-01  1.37404775e-01  1.02893199e+00  1.07484140e+00
  1.69090038e+00  4.19135300e+00  4.29079651e+00  2.42927293e+01]
alpha-B1g nocc = 0
   mo_energy = [0.13430363 1.06338694 4.26495286]
alpha-B2g nocc = 0
   mo_energy = [0.13430363 1.06338694 4.26495286]
alpha-B3g nocc = 0
   mo_energy = [0.12615365 1.02893199 4.191353  ]
alpha-B1u nocc = 1  HOMO = -1.53573200958908  LUMO = -0.10627776904824
   mo_energy = [-1.53573201e+00 -1.06277769e-01  1.86190913e-02  1.03730609e+00
  2.23596148e+01]
alpha-B2u nocc = 1  HOMO = -1.53573200958908  LUMO = -0.10627776904824
   mo_energy = [-1.53573201e+00 -1.06277769e-01  1.86190913e-02  1.03730609e+00
  2.23596148e+01]
alpha-B3u nocc = 1  HOMO = -1.41582832025103  LUMO = -0.102037582669235
   mo_energy = [-1.41582832 -0.10203758  0.02869939  1.09711529 22.43753104]
beta-Ag nocc = 2  HOMO = -2.00123840150569  LUMO = -0.159114522190166
   mo_energy = [-27.10078387  -2.0012384   -0.15911452   0.040954     0.13457649
   0.13973211   1.10827999   1.11922183   1.79372735   4.39091703
   4.42217095  24.38882352]
beta-B1g nocc = 0
   mo_energy = [0.13814865 1.11052866 4.39783339]
beta-B2g nocc = 0
   mo_energy = [0.13814865 1.11052866 4.39783339]
beta-B3g nocc = 0
   mo_energy = [0.13457649 1.11922183 4.42217095]
beta-B1u nocc = 0
   mo_energy = [-0.49925809 -0.09645375  0.05148824  1.23317737 22.51920981]
beta-B2u nocc = 0
   mo_energy = [-0.49925809 -0.09645375  0.05148824  1.23317737 22.51920981]
beta-B3u nocc = 1  HOMO = -1.30675373618082  LUMO = -0.100907768813625
   mo_energy = [-1.30675374 -0.10090777  0.03285442  1.13524926 22.48071029]
multiplicity <S^2> = 2.004918  2S+1 = 3.0032769
E1 = -133.0960470203722  Ecoul = 34.293791165217925
cycle= 9 E= -98.8022558551543  delta_E= -2.1e-12  |g|= 1.32e-07  |ddm|= 1.69e-06
    CPU time for cycle= 9      0.03 sec, wall time      0.01 sec
diis-norm(errvec)=1.86388e-07
diis-c [-6.40884227e-15  1.14848218e+00 -4.77751693e-06  6.14178265e-05
 -3.19390537e-04  1.21140622e-03 -6.20170476e-03  3.06163291e-02
 -1.73845465e-01]
alpha HOMO (B3u) = -1.41582838630675  LUMO (Ag) = -0.165836391945446
alpha irrep_nelec = [2, 0, 0, 0, 1, 1, 1]
beta  irrep_nelec = [2, 0, 0, 0, 0, 0, 1]
alpha-Ag nocc = 2  HOMO = -2.40664198142206  LUMO = -0.165836391945446
   mo_energy = [-2.72057540e+01 -2.40664198e+00 -1.65836392e-01  2.55859881e-02
  1.26153644e-01  1.37404764e-01  1.02893197e+00  1.07484138e+00
  1.69090035e+00  4.19135297e+00  4.29079646e+00  2.42927292e+01]
alpha-B1g nocc = 0
   mo_energy = [0.13430362 1.06338692 4.26495282]
alpha-B2g nocc = 0
   mo_energy = [0.13430362 1.06338692 4.26495282]
alpha-B3g nocc = 0
   mo_energy = [0.12615364 1.02893197 4.19135297]
alpha-B1u nocc = 1  HOMO = -1.53573198797497  LUMO = -0.106277774107601
   mo_energy = [-1.53573199e+00 -1.06277774e-01  1.86190805e-02  1.03730607e+00
  2.23596148e+01]
alpha-B2u nocc = 1  HOMO = -1.53573198797496  LUMO = -0.106277774107601
   mo_energy = [-1.53573199e+00 -1.06277774e-01  1.86190805e-02  1.03730607e+00
  2.23596148e+01]
alpha-B3u nocc = 1  HOMO = -1.41582838630675  LUMO = -0.102037588051858
   mo_energy = [-1.41582839 -0.10203759  0.02869938  1.09711525 22.43753098]
beta-Ag nocc = 2  HOMO = -2.00123842664478  LUMO = -0.159114522628273
   mo_energy = [-27.10078394  -2.00123843  -0.15911452   0.040954     0.13457649
   0.1397321    1.10827996   1.1192218    1.79372734   4.39091698
   4.42217089  24.38882347]
beta-B1g nocc = 0
   mo_energy = [0.13814865 1.11052864 4.39783334]
beta-B2g nocc = 0
   mo_energy = [0.13814865 1.11052864 4.39783334]
beta-B3g nocc = 0
   mo_energy = [0.13457649 1.1192218  4.42217089]
beta-B1u nocc = 0
   mo_energy = [-0.49925814 -0.09645375  0.05148824  1.23317734 22.51920973]
beta-B2u nocc = 0
   mo_energy = [-0.49925814 -0.09645375  0.05148824  1.23317734 22.51920973]
beta-B3u nocc = 1  HOMO = -1.30675383130248  LUMO = -0.100907771506845
   mo_energy = [-1.30675383 -0.10090777  0.03285442  1.13524921 22.48071021]
multiplicity <S^2> = 2.004918  2S+1 = 3.0032769
E1 = -133.0960471906385  Ecoul = 34.29379133548415
cycle= 10 E= -98.8022558551544  delta_E= -8.53e-14  |g|= 1.09e-08  |ddm|= 1.19e-07
    CPU time for cycle= 10      0.04 sec, wall time      0.01 sec
diis-norm(errvec)=1.54586e-08
Linear dependence found in DIIS error vectors.
diis-c [-3.81611039e-15  4.97499454e-01  5.41419462e-01  2.45361069e-06
 -1.70591637e-05  7.96154669e-05 -5.74008535e-04  4.17371095e-03
 -4.25836288e-02]
alpha HOMO (B3u) = -1.41582838764864  LUMO (Ag) = -0.165836391678688
alpha irrep_nelec = [2, 0, 0, 0, 1, 1, 1]
beta  irrep_nelec = [2, 0, 0, 0, 0, 0, 1]
alpha-Ag nocc = 2  HOMO = -2.40664198375337  LUMO = -0.165836391678688
   mo_energy = [-2.72057540e+01 -2.40664198e+00 -1.65836392e-01  2.55859882e-02
  1.26153644e-01  1.37404764e-01  1.02893197e+00  1.07484138e+00
  1.69090034e+00  4.19135297e+00  4.29079646e+00  2.42927292e+01]
alpha-B1g nocc = 0
   mo_energy = [0.13430362 1.06338692 4.26495282]
alpha-B2g nocc = 0
   mo_energy = [0.13430362 1.06338692 4.26495282]
alpha-B3g nocc = 0
   mo_energy = [0.12615364 1.02893197 4.19135297]
alpha-B1u nocc = 1  HOMO = -1.53573199026644  LUMO = -0.106277773867773
   mo_energy = [-1.53573199e+00 -1.06277774e-01  1.86190810e-02  1.03730607e+00
  2.23596148e+01]
alpha-B2u nocc = 1  HOMO = -1.53573199026643  LUMO = -0.106277773867773
   mo_energy = [-1.53573199e+00 -1.06277774e-01  1.86190810e-02  1.03730607e+00
  2.23596148e+01]
alpha-B3u nocc = 1  HOMO = -1.41582838764864  LUMO = -0.102037587933806
   mo_energy = [-1.41582839 -0.10203759  0.02869938  1.09711524 22.43753098]
beta-Ag nocc = 2  HOMO = -2.00123842713192  LUMO = -0.159114522651705
   mo_energy = [-27.10078395  -2.00123843  -0.15911452   0.040954     0.13457649
   0.1397321    1.10827996   1.1192218    1.79372734   4.39091698
   4.42217089  24.38882346]
beta-B1g nocc = 0
   mo_energy = [0.13814865 1.11052864 4.39783334]
beta-B2g nocc = 0
   mo_energy = [0.13814865 1.11052864 4.39783334]
beta-B3g nocc = 0
   mo_energy = [0.13457649 1.1192218  4.42217089]
beta-B1u nocc = 0
   mo_energy = [-0.49925814 -0.09645375  0.05148824  1.23317734 22.51920973]
beta-B2u nocc = 0
   mo_energy = [-0.49925814 -0.09645375  0.05148824  1.23317734 22.51920973]
beta-B3u nocc = 1  HOMO = -1.30675383049699  LUMO = -0.100907771551303
   mo_energy = [-1.30675383 -0.10090777  0.03285442  1.13524921 22.48071021]
multiplicity <S^2> = 2.004918  2S+1 = 3.0032769
E1 = -133.09604719318733  Ecoul = 34.29379133803298
cycle= 11 E= -98.8022558551544  delta_E=    0  |g|= 8.7e-09  |ddm|= 1.38e-09
    CPU time for cycle= 11      0.03 sec, wall time      0.01 sec
diis-norm(errvec)=1.2301e-08
Linear dependence found in DIIS error vectors.
diis-c [-9.82101524e-17 -2.94126866e-02  5.11626808e-01  5.19088126e-01
  1.54335995e-07  2.01533154e-06 -4.10901366e-05  3.52823173e-04
 -1.61615043e-03]
alpha HOMO (B3u) = -1.41582838337001  LUMO (Ag) = -0.165836391484035
alpha irrep_nelec = [2, 0, 0, 0, 1, 1, 1]
beta  irrep_nelec = [2, 0, 0, 0, 0, 0, 1]
alpha-Ag nocc = 2  HOMO = -2.4066419798266  LUMO = -0.165836391484035
   mo_energy = [-2.72057540e+01 -2.40664198e+00 -1.65836391e-01  2.55859886e-02
  1.26153645e-01  1.37404765e-01  1.02893198e+00  1.07484138e+00
  1.69090035e+00  4.19135297e+00  4.29079647e+00  2.42927292e+01]
alpha-B1g nocc = 0
   mo_energy = [0.13430363 1.06338692 4.26495282]
alpha-B2g nocc = 0
   mo_energy = [0.13430363 1.06338692 4.26495282]
alpha-B3g nocc = 0
   mo_energy = [0.12615364 1.02893198 4.19135297]
alpha-B1u nocc = 1  HOMO = -1.53573198319427  LUMO = -0.106277773723499
   mo_energy = [-1.53573198e+00 -1.06277774e-01  1.86190813e-02  1.03730607e+00
  2.23596148e+01]
alpha-B2u nocc = 1  HOMO = -1.53573198319427  LUMO = -0.106277773723499
   mo_energy = [-1.53573198e+00 -1.06277774e-01  1.86190813e-02  1.03730607e+00
  2.23596148e+01]
alpha-B3u nocc = 1  HOMO = -1.41582838337001  LUMO = -0.102037587938767
   mo_energy = [-1.41582838 -0.10203759  0.02869938  1.09711525 22.43753099]
beta-Ag nocc = 2  HOMO = -2.00123842086865  LUMO = -0.159114522418018
   mo_energy = [-27.10078393  -2.00123842  -0.15911452   0.040954     0.13457649
   0.1397321    1.10827997   1.11922181   1.79372735   4.39091699
   4.4221709   24.38882347]
beta-B1g nocc = 0
   mo_energy = [0.13814865 1.11052864 4.39783335]
beta-B2g nocc = 0
   mo_energy = [0.13814865 1.11052864 4.39783335]
beta-B3g nocc = 0
   mo_energy = [0.13457649 1.11922181 4.4221709 ]
beta-B1u nocc = 0
   mo_energy = [-0.49925813 -0.09645375  0.05148824  1.23317734 22.51920974]
beta-B2u nocc = 0
   mo_energy = [-0.49925813 -0.09645375  0.05148824  1.23317734 22.51920974]
beta-B3u nocc = 1  HOMO = -1.30675382640388  LUMO = -0.100907771575081
   mo_energy = [-1.30675383 -0.10090777  0.03285442  1.13524922 22.48071022]
multiplicity <S^2> = 2.004918  2S+1 = 3.0032769
E1 = -133.0960471866746  Ecoul = 34.29379133152025
cycle= 12 E= -98.8022558551544  delta_E=    0  |g|= 1.42e-09  |ddm|= 7.09e-09
    CPU time for cycle= 12      0.03 sec, wall time      0.01 sec
diis-norm(errvec)=2.00448e-09
Linear dependence found in DIIS error vectors.
diis-c [-1.29560621e-17 -2.58856731e-02  3.36218510e-01  3.40859047e-01
  3.49486861e-01  2.12102448e-06 -3.31972274e-05  2.58063469e-04
 -9.05731863e-04]
alpha HOMO (B3u) = -1.41582838335799  LUMO (Ag) = -0.165836391466446
alpha irrep_nelec = [2, 0, 0, 0, 1, 1, 1]
beta  irrep_nelec = [2, 0, 0, 0, 0, 0, 1]
alpha-Ag nocc = 2  HOMO = -2.40664197986649  LUMO = -0.165836391466446
   mo_energy = [-2.72057540e+01 -2.40664198e+00 -1.65836391e-01  2.55859886e-02
  1.26153645e-01  1.37404765e-01  1.02893198e+00  1.07484138e+00
  1.69090035e+00  4.19135297e+00  4.29079647e+00  2.42927292e+01]
alpha-B1g nocc = 0
   mo_energy = [0.13430363 1.06338692 4.26495282]
alpha-B2g nocc = 0
   mo_energy = [0.13430363 1.06338692 4.26495282]
alpha-B3g nocc = 0
   mo_energy = [0.12615364 1.02893198 4.19135297]
alpha-B1u nocc = 1  HOMO = -1.53573198305996  LUMO = -0.106277773716985
   mo_energy = [-1.53573198e+00 -1.06277774e-01  1.86190814e-02  1.03730607e+00
  2.23596148e+01]
alpha-B2u nocc = 1  HOMO = -1.53573198305996  LUMO = -0.106277773716985
   mo_energy = [-1.53573198e+00 -1.06277774e-01  1.86190814e-02  1.03730607e+00
  2.23596148e+01]
alpha-B3u nocc = 1  HOMO = -1.41582838335799  LUMO = -0.102037587938402
   mo_energy = [-1.41582838 -0.10203759  0.02869938  1.09711525 22.43753099]
beta-Ag nocc = 2  HOMO = -2.00123842064493  LUMO = -0.159114522405703
   mo_energy = [-27.10078393  -2.00123842  -0.15911452   0.040954     0.13457649
   0.1397321    1.10827997   1.11922181   1.79372735   4.39091699
   4.4221709   24.38882347]
beta-B1g nocc = 0
   mo_energy = [0.13814865 1.11052864 4.39783335]
beta-B2g nocc = 0
   mo_energy = [0.13814865 1.11052864 4.39783335]
beta-B3g nocc = 0
   mo_energy = [0.13457649 1.11922181 4.4221709 ]
beta-B1u nocc = 0
   mo_energy = [-0.49925813 -0.09645375  0.05148824  1.23317734 22.51920974]
beta-B2u nocc = 0
   mo_energy = [-0.49925813 -0.09645375  0.05148824  1.23317734 22.51920974]
beta-B3u nocc = 1  HOMO = -1.30675382628018  LUMO = -0.10090777157536
   mo_energy = [-1.30675383 -0.10090777  0.03285442  1.13524922 22.48071022]
multiplicity <S^2> = 2.004918  2S+1 = 3.0032769
E1 = -133.09604718706464  Ecoul = 34.29379133191034
cycle= 13 E= -98.8022558551543  delta_E= 5.68e-14  |g|= 9.66e-10  |ddm|= 4.91e-10
    CPU time for cycle= 13      0.03 sec, wall time      0.01 sec
diis-norm(errvec)=1.36678e-09
Linear dependence found in DIIS error vectors.
diis-c [ 6.04193722e-17 -2.01234979e-02  2.49392449e-01  2.52865028e-01
  2.58719781e-01  2.59327286e-01 -6.06366528e-06  8.61837581e-05
 -2.61164948e-04]
alpha HOMO (B3u) = -1.41582838340382  LUMO (Ag) = -0.165836391457024
alpha irrep_nelec = [2, 0, 0, 0, 1, 1, 1]
beta  irrep_nelec = [2, 0, 0, 0, 0, 0, 1]
alpha-Ag nocc = 2  HOMO = -2.40664197993432  LUMO = -0.165836391457024
   mo_energy = [-2.72057540e+01 -2.40664198e+00 -1.65836391e-01  2.55859886e-02
  1.26153645e-01  1.37404765e-01  1.02893198e+00  1.07484138e+00
  1.69090035e+00  4.19135297e+00  4.29079647e+00  2.42927292e+01]
alpha-B1g nocc = 0
   mo_energy = [0.13430363 1.06338692 4.26495282]
alpha-B2g nocc = 0
   mo_energy = [0.13430363 1.06338692 4.26495282]
alpha-B3g nocc = 0
   mo_energy = [0.12615364 1.02893198 4.19135297]
alpha-B1u nocc = 1  HOMO = -1.53573198310406  LUMO = -0.106277773716716
   mo_energy = [-1.53573198e+00 -1.06277774e-01  1.86190814e-02  1.03730607e+00
  2.23596148e+01]
alpha-B2u nocc = 1  HOMO = -1.53573198310406  LUMO = -0.106277773716716
   mo_energy = [-1.53573198e+00 -1.06277774e-01  1.86190814e-02  1.03730607e+00
  2.23596148e+01]
alpha-B3u nocc = 1  HOMO = -1.41582838340382  LUMO = -0.102037587936524
   mo_energy = [-1.41582838 -0.10203759  0.02869938  1.09711525 22.43753099]
beta-Ag nocc = 2  HOMO = -2.00123842039055  LUMO = -0.159114522398466
   mo_energy = [-27.10078393  -2.00123842  -0.15911452   0.040954     0.13457649
   0.1397321    1.10827997   1.11922181   1.79372735   4.39091699
   4.4221709   24.38882347]
beta-B1g nocc = 0
   mo_energy = [0.13814865 1.11052864 4.39783335]
beta-B2g nocc = 0
   mo_energy = [0.13814865 1.11052864 4.39783335]
beta-B3g nocc = 0
   mo_energy = [0.13457649 1.11922181 4.4221709 ]
beta-B1u nocc = 0
   mo_energy = [-0.49925813 -0.09645375  0.05148824  1.23317734 22.51920974]
beta-B2u nocc = 0
   mo_energy = [-0.49925813 -0.09645375  0.05148824  1.23317734 22.51920974]
beta-B3u nocc = 1  HOMO = -1.30675382601544  LUMO = -0.100907771570204
   mo_energy = [-1.30675383 -0.10090777  0.03285442  1.13524922 22.48071022]
multiplicity <S^2> = 2.004918  2S+1 = 3.0032769
E1 = -133.09604718719672  Ecoul = 34.2937913320424
cycle= 14 E= -98.8022558551543  delta_E= -1.42e-14  |g|= 8.81e-10  |ddm|= 6.38e-10
    CPU time for cycle= 14      0.03 sec, wall time      0.01 sec
diis-norm(errvec)=1.24649e-09
Linear dependence found in DIIS error vectors.
diis-c [-8.36873169e-16 -1.57218151e-02  1.95737793e-01  1.99458980e-01
  2.06386597e-01  2.07012351e-01  2.07170298e-01  3.34863252e-05
 -7.76901321e-05]
alpha HOMO (B3u) = -1.41582838334362  LUMO (Ag) = -0.165836391451084
alpha irrep_nelec = [2, 0, 0, 0, 1, 1, 1]
beta  irrep_nelec = [2, 0, 0, 0, 0, 0, 1]
alpha-Ag nocc = 2  HOMO = -2.40664197991401  LUMO = -0.165836391451084
   mo_energy = [-2.72057540e+01 -2.40664198e+00 -1.65836391e-01  2.55859886e-02
  1.26153645e-01  1.37404765e-01  1.02893198e+00  1.07484138e+00
  1.69090035e+00  4.19135297e+00  4.29079647e+00  2.42927292e+01]
alpha-B1g nocc = 0
   mo_energy = [0.13430363 1.06338692 4.26495282]
alpha-B2g nocc = 0
   mo_energy = [0.13430363 1.06338692 4.26495282]
alpha-B3g nocc = 0
   mo_energy = [0.12615364 1.02893198 4.19135297]
alpha-B1u nocc = 1  HOMO = -1.535731983063  LUMO = -0.106277773714006
   mo_energy = [-1.53573198e+00 -1.06277774e-01  1.86190814e-02  1.03730607e+00
  2.23596148e+01]
alpha-B2u nocc = 1  HOMO = -1.535731983063  LUMO = -0.106277773714007
   mo_energy = [-1.53573198e+00 -1.06277774e-01  1.86190814e-02  1.03730607e+00
  2.23596148e+01]
alpha-B3u nocc = 1  HOMO = -1.41582838334362  LUMO = -0.102037587936211
   mo_energy = [-1.41582838 -0.10203759  0.02869938  1.09711525 22.43753099]
beta-Ag nocc = 2  HOMO = -2.00123842043602  LUMO = -0.159114522395153
   mo_energy = [-27.10078393  -2.00123842  -0.15911452   0.040954     0.13457649
   0.1397321    1.10827997   1.11922181   1.79372735   4.39091699
   4.4221709   24.38882347]
beta-B1g nocc = 0
   mo_energy = [0.13814865 1.11052864 4.39783335]
beta-B2g nocc = 0
   mo_energy = [0.13814865 1.11052864 4.39783335]
beta-B3g nocc = 0
   mo_energy = [0.13457649 1.11922181 4.4221709 ]
beta-B1u nocc = 0
   mo_energy = [-0.49925813 -0.09645375  0.05148824  1.23317734 22.51920974]
beta-B2u nocc = 0
   mo_energy = [-0.49925813 -0.09645375  0.05148824  1.23317734 22.51920974]
beta-B3u nocc = 1  HOMO = -1.30675382615697  LUMO = -0.100907771573223
   mo_energy = [-1.30675383 -0.10090777  0.03285442  1.13524922 22.48071022]
multiplicity <S^2> = 2.004918  2S+1 = 3.0032769
E1 = -133.09604718740232  Ecoul = 34.293791332247984
cycle= 15 E= -98.8022558551543  delta_E= -1.42e-14  |g|= 7.19e-10  |ddm|= 3.18e-10
    CPU time for cycle= 15      0.03 sec, wall time      0.01 sec
diis-norm(errvec)=1.01659e-09
Linear dependence found in DIIS error vectors.
diis-c [-1.06765784e-16 -1.98276045e-02  1.62659457e-01  1.65814476e-01
  1.72239837e-01  1.72776295e-01  1.72909574e-01  1.73030022e-01
  3.97942524e-04]
alpha HOMO (B3u) = -1.41582838330839  LUMO (Ag) = -0.165836391442222
alpha irrep_nelec = [2, 0, 0, 0, 1, 1, 1]
beta  irrep_nelec = [2, 0, 0, 0, 0, 0, 1]
alpha-Ag nocc = 2  HOMO = -2.40664197983073  LUMO = -0.165836391442222
   mo_energy = [-2.72057540e+01 -2.40664198e+00 -1.65836391e-01  2.55859886e-02
  1.26153645e-01  1.37404765e-01  1.02893198e+00  1.07484138e+00
  1.69090035e+00  4.19135297e+00  4.29079647e+00  2.42927292e+01]
alpha-B1g nocc = 0
   mo_energy = [0.13430363 1.06338692 4.26495282]
alpha-B2g nocc = 0
   mo_energy = [0.13430363 1.06338692 4.26495282]
alpha-B3g nocc = 0
   mo_energy = [0.12615364 1.02893198 4.19135297]
alpha-B1u nocc = 1  HOMO = -1.53573198287726  LUMO = -0.10627777370976
   mo_energy = [-1.53573198e+00 -1.06277774e-01  1.86190814e-02  1.03730607e+00
  2.23596148e+01]
alpha-B2u nocc = 1  HOMO = -1.53573198287726  LUMO = -0.10627777370976
   mo_energy = [-1.53573198e+00 -1.06277774e-01  1.86190814e-02  1.03730607e+00
  2.23596148e+01]
alpha-B3u nocc = 1  HOMO = -1.41582838330839  LUMO = -0.102037587936905
   mo_energy = [-1.41582838 -0.10203759  0.02869938  1.09711525 22.43753099]
beta-Ag nocc = 2  HOMO = -2.00123842027779  LUMO = -0.159114522390174
   mo_energy = [-27.10078393  -2.00123842  -0.15911452   0.040954     0.13457649
   0.1397321    1.10827997   1.11922181   1.79372735   4.39091699
   4.4221709   24.38882347]
beta-B1g nocc = 0
   mo_energy = [0.13814865 1.11052864 4.39783335]
beta-B2g nocc = 0
   mo_energy = [0.13814865 1.11052864 4.39783335]
beta-B3g nocc = 0
   mo_energy = [0.13457649 1.11922181 4.4221709 ]
beta-B1u nocc = 0
   mo_energy = [-0.49925813 -0.09645375  0.05148824  1.23317734 22.51920974]
beta-B2u nocc = 0
   mo_energy = [-0.49925813 -0.09645375  0.05148824  1.23317734 22.51920974]
beta-B3u nocc = 1  HOMO = -1.30675382597011  LUMO = -0.100907771572514
   mo_energy = [-1.30675383 -0.10090777  0.03285442  1.13524922 22.48071022]
multiplicity <S^2> = 2.004918  2S+1 = 3.0032769
E1 = -133.09604718726519  Ecoul = 34.293791332110885
cycle= 16 E= -98.8022558551543  delta_E= 2.84e-14  |g|= 6.45e-10  |ddm|= 1.45e-10
    CPU time for cycle= 16      0.03 sec, wall time      0.01 sec
diis-norm(errvec)=9.11669e-10
Linear dependence found in DIIS error vectors.
diis-c [ 2.00445921e-16 -7.53582147e-03  1.38609474e-01  1.40093414e-01
  1.45418053e-01  1.45742445e-01  1.45811443e-01  1.45877202e-01
  1.45983790e-01]
alpha HOMO (B3u) = -1.41582838354605  LUMO (Ag) = -0.165836391445565
alpha irrep_nelec = [2, 0, 0, 0, 1, 1, 1]
beta  irrep_nelec = [2, 0, 0, 0, 0, 0, 1]
alpha-Ag nocc = 2  HOMO = -2.40664198004508  LUMO = -0.165836391445565
   mo_energy = [-2.72057540e+01 -2.40664198e+00 -1.65836391e-01  2.55859886e-02
  1.26153645e-01  1.37404765e-01  1.02893198e+00  1.07484138e+00
  1.69090035e+00  4.19135297e+00  4.29079647e+00  2.42927292e+01]
alpha-B1g nocc = 0
   mo_energy = [0.13430363 1.06338692 4.26495282]
alpha-B2g nocc = 0
   mo_energy = [0.13430363 1.06338692 4.26495282]
alpha-B3g nocc = 0
   mo_energy = [0.12615364 1.02893198 4.19135297]
alpha-B1u nocc = 1  HOMO = -1.53573198313897  LUMO = -0.106277773712908
   mo_energy = [-1.53573198e+00 -1.06277774e-01  1.86190814e-02  1.03730607e+00
  2.23596148e+01]
alpha-B2u nocc = 1  HOMO = -1.53573198313897  LUMO = -0.106277773712908
   mo_energy = [-1.53573198e+00 -1.06277774e-01  1.86190814e-02  1.03730607e+00
  2.23596148e+01]
alpha-B3u nocc = 1  HOMO = -1.41582838354605  LUMO = -0.102037587937432
   mo_energy = [-1.41582838 -0.10203759  0.02869938  1.09711525 22.43753099]
beta-Ag nocc = 2  HOMO = -2.00123842056672  LUMO = -0.159114522398486
   mo_energy = [-27.10078393  -2.00123842  -0.15911452   0.040954     0.13457649
   0.1397321    1.10827997   1.11922181   1.79372735   4.39091699
   4.4221709   24.38882347]
beta-B1g nocc = 0
   mo_energy = [0.13814865 1.11052864 4.39783335]
beta-B2g nocc = 0
   mo_energy = [0.13814865 1.11052864 4.39783335]
beta-B3g nocc = 0
   mo_energy = [0.13457649 1.11922181 4.4221709 ]
beta-B1u nocc = 0
   mo_energy = [-0.49925813 -0.09645375  0.05148824  1.23317734 22.51920974]
beta-B2u nocc = 0
   mo_energy = [-0.49925813 -0.09645375  0.05148824  1.23317734 22.51920974]
beta-B3u nocc = 1  HOMO = -1.30675382615229  LUMO = -0.100907771572572
   mo_energy = [-1.30675383 -0.10090777  0.03285442  1.13524922 22.48071022]
multiplicity <S^2> = 2.004918  2S+1 = 3.0032769
E1 = -133.0960471877749  Ecoul = 34.2937913326206
cycle= 17 E= -98.8022558551543  delta_E=    0  |g|= 5.82e-10  |ddm|= 3.22e-10
    CPU time for cycle= 17      0.03 sec, wall time      0.01 sec
diis-norm(errvec)=8.23202e-10
Linear dependence found in DIIS error vectors.
diis-c [-2.89052492e-16  1.25000000e-01  1.25000000e-01  1.25000000e-01
  1.25000000e-01  1.25000000e-01  1.25000000e-01  1.25000000e-01
  1.25000000e-01]
alpha HOMO (B3u) = -1.4158283835853  LUMO (Ag) = -0.165836391444821
alpha irrep_nelec = [2, 0, 0, 0, 1, 1, 1]
beta  irrep_nelec = [2, 0, 0, 0, 0, 0, 1]
alpha-Ag nocc = 2  HOMO = -2.40664198014081  LUMO = -0.165836391444821
   mo_energy = [-2.72057540e+01 -2.40664198e+00 -1.65836391e-01  2.55859886e-02
  1.26153645e-01  1.37404765e-01  1.02893198e+00  1.07484138e+00
  1.69090035e+00  4.19135297e+00  4.29079647e+00  2.42927292e+01]
alpha-B1g nocc = 0
   mo_energy = [0.13430363 1.06338692 4.26495282]
alpha-B2g nocc = 0
   mo_energy = [0.13430363 1.06338692 4.26495282]
alpha-B3g nocc = 0
   mo_energy = [0.12615364 1.02893198 4.19135297]
alpha-B1u nocc = 1  HOMO = -1.53573198329748  LUMO = -0.106277773715538
   mo_energy = [-1.53573198e+00 -1.06277774e-01  1.86190814e-02  1.03730607e+00
  2.23596148e+01]
alpha-B2u nocc = 1  HOMO = -1.53573198329748  LUMO = -0.106277773715538
   mo_energy = [-1.53573198e+00 -1.06277774e-01  1.86190814e-02  1.03730607e+00
  2.23596148e+01]
alpha-B3u nocc = 1  HOMO = -1.4158283835853  LUMO = -0.102037587934688
   mo_energy = [-1.41582838 -0.10203759  0.02869938  1.09711525 22.43753099]
beta-Ag nocc = 2  HOMO = -2.00123842072464  LUMO = -0.1591145224044
   mo_energy = [-27.10078393  -2.00123842  -0.15911452   0.040954     0.13457649
   0.1397321    1.10827997   1.11922181   1.79372735   4.39091699
   4.4221709   24.38882347]
beta-B1g nocc = 0
   mo_energy = [0.13814865 1.11052864 4.39783335]
beta-B2g nocc = 0
   mo_energy = [0.13814865 1.11052864 4.39783335]
beta-B3g nocc = 0
   mo_energy = [0.13457649 1.11922181 4.4221709 ]
beta-B1u nocc = 0
   mo_energy = [-0.49925813 -0.09645375  0.05148824  1.23317734 22.51920974]
beta-B2u nocc = 0
   mo_energy = [-0.49925813 -0.09645375  0.05148824  1.23317734 22.51920974]
beta-B3u nocc = 1  HOMO = -1.30675382618686  LUMO = -0.100907771570239
   mo_energy = [-1.30675383 -0.10090777  0.03285442  1.13524922 22.48071022]
multiplicity <S^2> = 2.004918  2S+1 = 3.0032769
E1 = -133.09604718800267  Ecoul = 34.293791332848315
cycle= 18 E= -98.8022558551544  delta_E= -5.68e-14  |g|= 6.43e-10  |ddm|= 2.64e-10
    CPU time for cycle= 18      0.03 sec, wall time      0.01 sec
diis-norm(errvec)=9.09694e-10
Linear dependence found in DIIS error vectors.
diis-c [-2.89052492e-16  1.25000000e-01  1.25000000e-01  1.25000000e-01
  1.25000000e-01  1.25000000e-01  1.25000000e-01  1.25000000e-01
  1.25000000e-01]
alpha HOMO (B3u) = -1.4158283836299  LUMO (Ag) = -0.165836391444239
alpha irrep_nelec = [2, 0, 0, 0, 1, 1, 1]
beta  irrep_nelec = [2, 0, 0, 0, 0, 0, 1]
alpha-Ag nocc = 2  HOMO = -2.40664198020446  LUMO = -0.165836391444239
   mo_energy = [-2.72057540e+01 -2.40664198e+00 -1.65836391e-01  2.55859886e-02
  1.26153645e-01  1.37404765e-01  1.02893198e+00  1.07484138e+00
  1.69090035e+00  4.19135297e+00  4.29079647e+00  2.42927292e+01]
alpha-B1g nocc = 0
   mo_energy = [0.13430363 1.06338692 4.26495282]
alpha-B2g nocc = 0
   mo_energy = [0.13430363 1.06338692 4.26495282]
alpha-B3g nocc = 0
   mo_energy = [0.12615364 1.02893198 4.19135297]
alpha-B1u nocc = 1  HOMO = -1.53573198323433  LUMO = -0.106277773712613
   mo_energy = [-1.53573198e+00 -1.06277774e-01  1.86190814e-02  1.03730607e+00
  2.23596148e+01]
alpha-B2u nocc = 1  HOMO = -1.53573198323433  LUMO = -0.106277773712613
   mo_energy = [-1.53573198e+00 -1.06277774e-01  1.86190814e-02  1.03730607e+00
  2.23596148e+01]
alpha-B3u nocc = 1  HOMO = -1.4158283836299  LUMO = -0.102037587936547
   mo_energy = [-1.41582838 -0.10203759  0.02869938  1.09711525 22.43753099]
beta-Ag nocc = 2  HOMO = -2.0012384207276  LUMO = -0.159114522401217
   mo_energy = [-27.10078393  -2.00123842  -0.15911452   0.040954     0.13457649
   0.1397321    1.10827997   1.11922181   1.79372735   4.39091699
   4.4221709   24.38882347]
beta-B1g nocc = 0
   mo_energy = [0.13814865 1.11052864 4.39783335]
beta-B2g nocc = 0
   mo_energy = [0.13814865 1.11052864 4.39783335]
beta-B3g nocc = 0
   mo_energy = [0.13457649 1.11922181 4.4221709 ]
beta-B1u nocc = 0
   mo_energy = [-0.49925813 -0.09645375  0.05148824  1.23317734 22.51920974]
beta-B2u nocc = 0
   mo_energy = [-0.49925813 -0.09645375  0.05148824  1.23317734 22.51920974]
beta-B3u nocc = 1  HOMO = -1.30675382626519  LUMO = -0.100907771573497
   mo_energy = [-1.30675383 -0.10090777  0.03285442  1.13524922 22.48071022]
multiplicity <S^2> = 2.004918  2S+1 = 3.0032769
E1 = -133.09604718822578  Ecoul = 34.293791333071454
cycle= 19 E= -98.8022558551543  delta_E= 2.84e-14  |g|= 3.58e-10  |ddm|= 2.52e-10
    CPU time for cycle= 19      0.03 sec, wall time      0.01 sec
diis-norm(errvec)=5.06325e-10
Linear dependence found in DIIS error vectors.
diis-c [-2.89052492e-16  1.25000000e-01  1.25000000e-01  1.25000000e-01
  1.25000000e-01  1.25000000e-01  1.25000000e-01  1.25000000e-01
  1.25000000e-01]
alpha HOMO (B3u) = -1.41582838370533  LUMO (Ag) = -0.165836391445294
alpha irrep_nelec = [2, 0, 0, 0, 1, 1, 1]
beta  irrep_nelec = [2, 0, 0, 0, 0, 0, 1]
alpha-Ag nocc = 2  HOMO = -2.40664198028514  LUMO = -0.165836391445294
   mo_energy = [-2.72057540e+01 -2.40664198e+00 -1.65836391e-01  2.55859886e-02
  1.26153645e-01  1.37404765e-01  1.02893198e+00  1.07484138e+00
  1.69090035e+00  4.19135297e+00  4.29079647e+00  2.42927292e+01]
alpha-B1g nocc = 0
   mo_energy = [0.13430363 1.06338692 4.26495282]
alpha-B2g nocc = 0
   mo_energy = [0.13430363 1.06338692 4.26495282]
alpha-B3g nocc = 0
   mo_energy = [0.12615364 1.02893198 4.19135297]
alpha-B1u nocc = 1  HOMO = -1.53573198321693  LUMO = -0.106277773710794
   mo_energy = [-1.53573198e+00 -1.06277774e-01  1.86190814e-02  1.03730607e+00
  2.23596148e+01]
alpha-B2u nocc = 1  HOMO = -1.53573198321693  LUMO = -0.106277773710794
   mo_energy = [-1.53573198e+00 -1.06277774e-01  1.86190814e-02  1.03730607e+00
  2.23596148e+01]
alpha-B3u nocc = 1  HOMO = -1.41582838370533  LUMO = -0.102037587938701
   mo_energy = [-1.41582838 -0.10203759  0.02869938  1.09711525 22.43753099]
beta-Ag nocc = 2  HOMO = -2.00123842074066  LUMO = -0.159114522398883
   mo_energy = [-27.10078393  -2.00123842  -0.15911452   0.040954     0.13457649
   0.1397321    1.10827997   1.11922181   1.79372735   4.39091699
   4.4221709   24.38882347]
beta-B1g nocc = 0
   mo_energy = [0.13814865 1.11052864 4.39783335]
beta-B2g nocc = 0
   mo_energy = [0.13814865 1.11052864 4.39783335]
beta-B3g nocc = 0
   mo_energy = [0.13457649 1.11922181 4.4221709 ]
beta-B1u nocc = 0
   mo_energy = [-0.49925813 -0.09645375  0.05148824  1.23317734 22.51920974]
beta-B2u nocc = 0
   mo_energy = [-0.49925813 -0.09645375  0.05148824  1.23317734 22.51920974]
beta-B3u nocc = 1  HOMO = -1.30675382635725  LUMO = -0.100907771576484
   mo_energy = [-1.30675383 -0.10090777  0.03285442  1.13524922 22.48071022]
multiplicity <S^2> = 2.004918  2S+1 = 3.0032769
E1 = -133.09604718847584  Ecoul = 34.29379133332147
cycle= 20 E= -98.8022558551544  delta_E= -2.84e-14  |g|= 1.62e-10  |ddm|= 2.02e-10
    CPU time for cycle= 20      0.03 sec, wall time      0.01 sec
diis-norm(errvec)=2.29714e-10
Linear dependence found in DIIS error vectors.
diis-c [-2.89052492e-16  1.25000000e-01  1.25000000e-01  1.25000000e-01
  1.25000000e-01  1.25000000e-01  1.25000000e-01  1.25000000e-01
  1.25000000e-01]
alpha HOMO (B3u) = -1.4158283836928  LUMO (Ag) = -0.165836391443685
alpha irrep_nelec = [2, 0, 0, 0, 1, 1, 1]
beta  irrep_nelec = [2, 0, 0, 0, 0, 0, 1]
alpha-Ag nocc = 2  HOMO = -2.40664198027377  LUMO = -0.165836391443685
   mo_energy = [-2.72057540e+01 -2.40664198e+00 -1.65836391e-01  2.55859886e-02
  1.26153645e-01  1.37404765e-01  1.02893198e+00  1.07484138e+00
  1.69090035e+00  4.19135297e+00  4.29079647e+00  2.42927292e+01]
alpha-B1g nocc = 0
   mo_energy = [0.13430363 1.06338692 4.26495282]
alpha-B2g nocc = 0
   mo_energy = [0.13430363 1.06338692 4.26495282]
alpha-B3g nocc = 0
   mo_energy = [0.12615364 1.02893198 4.19135297]
alpha-B1u nocc = 1  HOMO = -1.53573198319451  LUMO = -0.106277773710221
   mo_energy = [-1.53573198e+00 -1.06277774e-01  1.86190814e-02  1.03730607e+00
  2.23596148e+01]
alpha-B2u nocc = 1  HOMO = -1.53573198319451  LUMO = -0.106277773710221
   mo_energy = [-1.53573198e+00 -1.06277774e-01  1.86190814e-02  1.03730607e+00
  2.23596148e+01]
alpha-B3u nocc = 1  HOMO = -1.4158283836928  LUMO = -0.102037587938574
   mo_energy = [-1.41582838 -0.10203759  0.02869938  1.09711525 22.43753099]
beta-Ag nocc = 2  HOMO = -2.00123842071127  LUMO = -0.159114522397762
   mo_energy = [-27.10078393  -2.00123842  -0.15911452   0.040954     0.13457649
   0.1397321    1.10827997   1.11922181   1.79372735   4.39091699
   4.4221709   24.38882347]
beta-B1g nocc = 0
   mo_energy = [0.13814865 1.11052864 4.39783335]
beta-B2g nocc = 0
   mo_energy = [0.13814865 1.11052864 4.39783335]
beta-B3g nocc = 0
   mo_energy = [0.13457649 1.11922181 4.4221709 ]
beta-B1u nocc = 0
   mo_energy = [-0.49925813 -0.09645375  0.05148824  1.23317734 22.51920974]
beta-B2u nocc = 0
   mo_energy = [-0.49925813 -0.09645375  0.05148824  1.23317734 22.51920974]
beta-B3u nocc = 1  HOMO = -1.30675382633145  LUMO = -0.100907771576331
   mo_energy = [-1.30675383 -0.10090777  0.03285442  1.13524922 22.48071022]
multiplicity <S^2> = 2.004918  2S+1 = 3.0032769
E1 = -133.09604718846353  Ecoul = 34.2937913333092
cycle= 21 E= -98.8022558551543  delta_E= 2.84e-14  |g|= 1.35e-10  |ddm|= 3.81e-11
    CPU time for cycle= 21      0.03 sec, wall time      0.01 sec
diis-norm(errvec)=1.91575e-10
Linear dependence found in DIIS error vectors.
diis-c [-2.89052492e-16  1.25000000e-01  1.25000000e-01  1.25000000e-01
  1.25000000e-01  1.25000000e-01  1.25000000e-01  1.25000000e-01
  1.25000000e-01]
alpha HOMO (B3u) = -1.41582838368241  LUMO (Ag) = -0.165836391442528
alpha irrep_nelec = [2, 0, 0, 0, 1, 1, 1]
beta  irrep_nelec = [2, 0, 0, 0, 0, 0, 1]
alpha-Ag nocc = 2  HOMO = -2.4066419802638  LUMO = -0.165836391442528
   mo_energy = [-2.72057540e+01 -2.40664198e+00 -1.65836391e-01  2.55859886e-02
  1.26153645e-01  1.37404765e-01  1.02893198e+00  1.07484138e+00
  1.69090035e+00  4.19135297e+00  4.29079647e+00  2.42927292e+01]
alpha-B1g nocc = 0
   mo_energy = [0.13430363 1.06338692 4.26495282]
alpha-B2g nocc = 0
   mo_energy = [0.13430363 1.06338692 4.26495282]
alpha-B3g nocc = 0
   mo_energy = [0.12615364 1.02893198 4.19135297]
alpha-B1u nocc = 1  HOMO = -1.53573198317769  LUMO = -0.106277773709824
   mo_energy = [-1.53573198e+00 -1.06277774e-01  1.86190814e-02  1.03730607e+00
  2.23596148e+01]
alpha-B2u nocc = 1  HOMO = -1.53573198317769  LUMO = -0.106277773709824
   mo_energy = [-1.53573198e+00 -1.06277774e-01  1.86190814e-02  1.03730607e+00
  2.23596148e+01]
alpha-B3u nocc = 1  HOMO = -1.41582838368241  LUMO = -0.102037587938454
   mo_energy = [-1.41582838 -0.10203759  0.02869938  1.09711525 22.43753099]
beta-Ag nocc = 2  HOMO = -2.00123842069093  LUMO = -0.159114522397032
   mo_energy = [-27.10078393  -2.00123842  -0.15911452   0.040954     0.13457649
   0.1397321    1.10827997   1.11922181   1.79372735   4.39091699
   4.4221709   24.38882347]
beta-B1g nocc = 0
   mo_energy = [0.13814865 1.11052864 4.39783335]
beta-B2g nocc = 0
   mo_energy = [0.13814865 1.11052864 4.39783335]
beta-B3g nocc = 0
   mo_energy = [0.13457649 1.11922181 4.4221709 ]
beta-B1u nocc = 0
   mo_energy = [-0.49925813 -0.09645375  0.05148824  1.23317734 22.51920974]
beta-B2u nocc = 0
   mo_energy = [-0.49925813 -0.09645375  0.05148824  1.23317734 22.51920974]
beta-B3u nocc = 1  HOMO = -1.30675382631142  LUMO = -0.100907771576184
   mo_energy = [-1.30675383 -0.10090777  0.03285442  1.13524922 22.48071022]
multiplicity <S^2> = 2.004918  2S+1 = 3.0032769
E1 = -133.09604718844903  Ecoul = 34.293791333294706
cycle= 22 E= -98.8022558551543  delta_E=    0  |g|= 1.2e-10  |ddm|= 2.17e-11
    CPU time for cycle= 22      0.03 sec, wall time      0.01 sec
diis-norm(errvec)=1.69434e-10
Linear dependence found in DIIS error vectors.
diis-c [-2.89052492e-16  1.25000000e-01  1.25000000e-01  1.25000000e-01
  1.25000000e-01  1.25000000e-01  1.25000000e-01  1.25000000e-01
  1.25000000e-01]
alpha HOMO (B3u) = -1.41582838366752  LUMO (Ag) = -0.165836391441623
alpha irrep_nelec = [2, 0, 0, 0, 1, 1, 1]
beta  irrep_nelec = [2, 0, 0, 0, 0, 0, 1]
alpha-Ag nocc = 2  HOMO = -2.40664198024965  LUMO = -0.165836391441623
   mo_energy = [-2.72057540e+01 -2.40664198e+00 -1.65836391e-01  2.55859886e-02
  1.26153645e-01  1.37404765e-01  1.02893198e+00  1.07484138e+00
  1.69090035e+00  4.19135297e+00  4.29079647e+00  2.42927292e+01]
alpha-B1g nocc = 0
   mo_energy = [0.13430363 1.06338692 4.26495282]
alpha-B2g nocc = 0
   mo_energy = [0.13430363 1.06338692 4.26495282]
alpha-B3g nocc = 0
   mo_energy = [0.12615364 1.02893198 4.19135297]
alpha-B1u nocc = 1  HOMO = -1.53573198315697  LUMO = -0.106277773709363
   mo_energy = [-1.53573198e+00 -1.06277774e-01  1.86190814e-02  1.03730607e+00
  2.23596148e+01]
alpha-B2u nocc = 1  HOMO = -1.53573198315697  LUMO = -0.106277773709363
   mo_energy = [-1.53573198e+00 -1.06277774e-01  1.86190814e-02  1.03730607e+00
  2.23596148e+01]
alpha-B3u nocc = 1  HOMO = -1.41582838366752  LUMO = -0.102037587938392
   mo_energy = [-1.41582838 -0.10203759  0.02869938  1.09711525 22.43753099]
beta-Ag nocc = 2  HOMO = -2.00123842068119  LUMO = -0.159114522396499
   mo_energy = [-27.10078393  -2.00123842  -0.15911452   0.040954     0.13457649
   0.1397321    1.10827997   1.11922181   1.79372735   4.39091699
   4.4221709   24.38882347]
beta-B1g nocc = 0
   mo_energy = [0.13814865 1.11052864 4.39783335]
beta-B2g nocc = 0
   mo_energy = [0.13814865 1.11052864 4.39783335]
beta-B3g nocc = 0
   mo_energy = [0.13457649 1.11922181 4.4221709 ]
beta-B1u nocc = 0
   mo_energy = [-0.49925813 -0.09645375  0.05148824  1.23317734 22.51920974]
beta-B2u nocc = 0
   mo_energy = [-0.49925813 -0.09645375  0.05148824  1.23317734 22.51920974]
[...]
multiplicity <S^2> = 2.004918  2S+1 = 3.0032769
E1 = -133.09604718840075  Ecoul = 34.29379133324644
cycle= 68 E= -98.8022558551543  delta_E=    0  |g|= 6.41e-14  |ddm|= 1.84e-14
    CPU time for cycle= 68      0.03 sec, wall time      0.01 sec
diis-norm(errvec)=6.62939e-14
Linear dependence found in DIIS error vectors.
diis-c [-2.89052492e-16  1.25000000e-01  1.25000000e-01  1.25000000e-01
  1.25000000e-01  1.25000000e-01  1.25000000e-01  1.25000000e-01
  1.25000000e-01]
alpha HOMO (B3u) = -1.4158283836287  LUMO (Ag) = -0.165836391439527
alpha irrep_nelec = [2, 0, 0, 0, 1, 1, 1]
beta  irrep_nelec = [2, 0, 0, 0, 0, 0, 1]
alpha-Ag nocc = 2  HOMO = -2.40664198021588  LUMO = -0.165836391439527
   mo_energy = [-2.72057540e+01 -2.40664198e+00 -1.65836391e-01  2.55859886e-02
  1.26153645e-01  1.37404765e-01  1.02893198e+00  1.07484138e+00
  1.69090035e+00  4.19135297e+00  4.29079647e+00  2.42927292e+01]
alpha-B1g nocc = 0
   mo_energy = [0.13430363 1.06338692 4.26495282]
alpha-B2g nocc = 0
   mo_energy = [0.13430363 1.06338692 4.26495282]
alpha-B3g nocc = 0
   mo_energy = [0.12615364 1.02893198 4.19135297]
alpha-B1u nocc = 1  HOMO = -1.53573198309057  LUMO = -0.106277773707778
   mo_energy = [-1.53573198e+00 -1.06277774e-01  1.86190814e-02  1.03730607e+00
  2.23596148e+01]
alpha-B2u nocc = 1  HOMO = -1.53573198309058  LUMO = -0.106277773707777
   mo_energy = [-1.53573198e+00 -1.06277774e-01  1.86190814e-02  1.03730607e+00
  2.23596148e+01]
alpha-B3u nocc = 1  HOMO = -1.4158283836287  LUMO = -0.10203758793851
   mo_energy = [-1.41582838 -0.10203759  0.02869938  1.09711525 22.43753099]
beta-Ag nocc = 2  HOMO = -2.00123842065732  LUMO = -0.159114522394665
   mo_energy = [-27.10078393  -2.00123842  -0.15911452   0.040954     0.13457649
   0.1397321    1.10827997   1.11922181   1.79372735   4.39091699
   4.4221709   24.38882347]
beta-B1g nocc = 0
   mo_energy = [0.13814865 1.11052864 4.39783335]
beta-B2g nocc = 0
   mo_energy = [0.13814865 1.11052864 4.39783335]
beta-B3g nocc = 0
   mo_energy = [0.13457649 1.11922181 4.4221709 ]
beta-B1u nocc = 0
   mo_energy = [-0.49925813 -0.09645375  0.05148824  1.23317734 22.51920974]
beta-B2u nocc = 0
   mo_energy = [-0.49925813 -0.09645375  0.05148824  1.23317734 22.51920974]
beta-B3u nocc = 1  HOMO = -1.30675382630369  LUMO = -0.100907771577251
   mo_energy = [-1.30675383 -0.10090777  0.03285442  1.13524922 22.48071022]
multiplicity <S^2> = 2.004918  2S+1 = 3.0032769
E1 = -133.09604718840075  Ecoul = 34.29379133324645
cycle= 69 E= -98.8022558551543  delta_E=    0  |g|= 4.93e-14  |ddm|= 1.09e-14
    CPU time for cycle= 69      0.03 sec, wall time      0.01 sec
diis-norm(errvec)=7.19946e-14
Linear dependence found in DIIS error vectors.
diis-c [-2.89052492e-16  1.25000000e-01  1.25000000e-01  1.25000000e-01
  1.25000000e-01  1.25000000e-01  1.25000000e-01  1.25000000e-01
  1.25000000e-01]
alpha HOMO (B3u) = -1.41582838362869  LUMO (Ag) = -0.165836391439527
alpha irrep_nelec = [2, 0, 0, 0, 1, 1, 1]
beta  irrep_nelec = [2, 0, 0, 0, 0, 0, 1]
alpha-Ag nocc = 2  HOMO = -2.40664198021589  LUMO = -0.165836391439527
   mo_energy = [-2.72057540e+01 -2.40664198e+00 -1.65836391e-01  2.55859886e-02
  1.26153645e-01  1.37404765e-01  1.02893198e+00  1.07484138e+00
  1.69090035e+00  4.19135297e+00  4.29079647e+00  2.42927292e+01]
alpha-B1g nocc = 0
   mo_energy = [0.13430363 1.06338692 4.26495282]
alpha-B2g nocc = 0
   mo_energy = [0.13430363 1.06338692 4.26495282]
alpha-B3g nocc = 0
   mo_energy = [0.12615364 1.02893198 4.19135297]
alpha-B1u nocc = 1  HOMO = -1.53573198309057  LUMO = -0.106277773707777
   mo_energy = [-1.53573198e+00 -1.06277774e-01  1.86190814e-02  1.03730607e+00
  2.23596148e+01]
alpha-B2u nocc = 1  HOMO = -1.53573198309057  LUMO = -0.106277773707777
   mo_energy = [-1.53573198e+00 -1.06277774e-01  1.86190814e-02  1.03730607e+00
  2.23596148e+01]
alpha-B3u nocc = 1  HOMO = -1.41582838362869  LUMO = -0.10203758793851
   mo_energy = [-1.41582838 -0.10203759  0.02869938  1.09711525 22.43753099]
beta-Ag nocc = 2  HOMO = -2.00123842065733  LUMO = -0.159114522394664
   mo_energy = [-27.10078393  -2.00123842  -0.15911452   0.040954     0.13457649
   0.1397321    1.10827997   1.11922181   1.79372735   4.39091699
   4.4221709   24.38882347]
beta-B1g nocc = 0
   mo_energy = [0.13814865 1.11052864 4.39783335]
beta-B2g nocc = 0
   mo_energy = [0.13814865 1.11052864 4.39783335]
beta-B3g nocc = 0
   mo_energy = [0.13457649 1.11922181 4.4221709 ]
beta-B1u nocc = 0
   mo_energy = [-0.49925813 -0.09645375  0.05148824  1.23317734 22.51920974]
beta-B2u nocc = 0
   mo_energy = [-0.49925813 -0.09645375  0.05148824  1.23317734 22.51920974]
beta-B3u nocc = 1  HOMO = -1.3067538263037  LUMO = -0.100907771577251
   mo_energy = [-1.30675383 -0.10090777  0.03285442  1.13524922 22.48071022]
multiplicity <S^2> = 2.004918  2S+1 = 3.0032769
E1 = -133.0960471884008  Ecoul = 34.293791333246446
cycle= 70 E= -98.8022558551544  delta_E= -5.68e-14  |g|= 5.52e-14  |ddm|= 1.04e-14
    CPU time for cycle= 70      0.03 sec, wall time      0.01 sec
diis-norm(errvec)=5.37548e-14
Linear dependence found in DIIS error vectors.
diis-c [-2.89052492e-16  1.25000000e-01  1.25000000e-01  1.25000000e-01
  1.25000000e-01  1.25000000e-01  1.25000000e-01  1.25000000e-01
  1.25000000e-01]
alpha HOMO (B3u) = -1.41582838362869  LUMO (Ag) = -0.165836391439527
alpha irrep_nelec = [2, 0, 0, 0, 1, 1, 1]
beta  irrep_nelec = [2, 0, 0, 0, 0, 0, 1]
alpha-Ag nocc = 2  HOMO = -2.40664198021588  LUMO = -0.165836391439527
   mo_energy = [-2.72057540e+01 -2.40664198e+00 -1.65836391e-01  2.55859886e-02
  1.26153645e-01  1.37404765e-01  1.02893198e+00  1.07484138e+00
  1.69090035e+00  4.19135297e+00  4.29079647e+00  2.42927292e+01]
alpha-B1g nocc = 0
   mo_energy = [0.13430363 1.06338692 4.26495282]
alpha-B2g nocc = 0
   mo_energy = [0.13430363 1.06338692 4.26495282]
alpha-B3g nocc = 0
   mo_energy = [0.12615364 1.02893198 4.19135297]
alpha-B1u nocc = 1  HOMO = -1.53573198309057  LUMO = -0.106277773707777
   mo_energy = [-1.53573198e+00 -1.06277774e-01  1.86190814e-02  1.03730607e+00
  2.23596148e+01]
alpha-B2u nocc = 1  HOMO = -1.53573198309057  LUMO = -0.106277773707777
   mo_energy = [-1.53573198e+00 -1.06277774e-01  1.86190814e-02  1.03730607e+00
  2.23596148e+01]
alpha-B3u nocc = 1  HOMO = -1.41582838362869  LUMO = -0.10203758793851
   mo_energy = [-1.41582838 -0.10203759  0.02869938  1.09711525 22.43753099]
beta-Ag nocc = 2  HOMO = -2.00123842065733  LUMO = -0.159114522394664
   mo_energy = [-27.10078393  -2.00123842  -0.15911452   0.040954     0.13457649
   0.1397321    1.10827997   1.11922181   1.79372735   4.39091699
   4.4221709   24.38882347]
beta-B1g nocc = 0
   mo_energy = [0.13814865 1.11052864 4.39783335]
beta-B2g nocc = 0
   mo_energy = [0.13814865 1.11052864 4.39783335]
beta-B3g nocc = 0
   mo_energy = [0.13457649 1.11922181 4.4221709 ]
beta-B1u nocc = 0
   mo_energy = [-0.49925813 -0.09645375  0.05148824  1.23317734 22.51920974]
beta-B2u nocc = 0
   mo_energy = [-0.49925813 -0.09645375  0.05148824  1.23317734 22.51920974]
beta-B3u nocc = 1  HOMO = -1.3067538263037  LUMO = -0.100907771577251
   mo_energy = [-1.30675383 -0.10090777  0.03285442  1.13524922 22.48071022]
multiplicity <S^2> = 2.004918  2S+1 = 3.0032769
E1 = -133.09604718840075  Ecoul = 34.293791333246446
cycle= 71 E= -98.8022558551543  delta_E= 5.68e-14  |g|= 3.34e-14  |ddm|= 5.33e-15
    CPU time for cycle= 71      0.03 sec, wall time      0.01 sec
diis-norm(errvec)=8.71361e-14
Linear dependence found in DIIS error vectors.
diis-c [-2.89052492e-16  1.25000000e-01  1.25000000e-01  1.25000000e-01
  1.25000000e-01  1.25000000e-01  1.25000000e-01  1.25000000e-01
  1.25000000e-01]
alpha HOMO (B3u) = -1.41582838362869  LUMO (Ag) = -0.165836391439527
alpha irrep_nelec = [2, 0, 0, 0, 1, 1, 1]
beta  irrep_nelec = [2, 0, 0, 0, 0, 0, 1]
alpha-Ag nocc = 2  HOMO = -2.40664198021588  LUMO = -0.165836391439527
   mo_energy = [-2.72057540e+01 -2.40664198e+00 -1.65836391e-01  2.55859886e-02
  1.26153645e-01  1.37404765e-01  1.02893198e+00  1.07484138e+00
  1.69090035e+00  4.19135297e+00  4.29079647e+00  2.42927292e+01]
alpha-B1g nocc = 0
   mo_energy = [0.13430363 1.06338692 4.26495282]
alpha-B2g nocc = 0
   mo_energy = [0.13430363 1.06338692 4.26495282]
alpha-B3g nocc = 0
   mo_energy = [0.12615364 1.02893198 4.19135297]
alpha-B1u nocc = 1  HOMO = -1.53573198309057  LUMO = -0.106277773707777
   mo_energy = [-1.53573198e+00 -1.06277774e-01  1.86190814e-02  1.03730607e+00
  2.23596148e+01]
alpha-B2u nocc = 1  HOMO = -1.53573198309057  LUMO = -0.106277773707777
   mo_energy = [-1.53573198e+00 -1.06277774e-01  1.86190814e-02  1.03730607e+00
  2.23596148e+01]
alpha-B3u nocc = 1  HOMO = -1.41582838362869  LUMO = -0.10203758793851
   mo_energy = [-1.41582838 -0.10203759  0.02869938  1.09711525 22.43753099]
beta-Ag nocc = 2  HOMO = -2.00123842065734  LUMO = -0.159114522394664
   mo_energy = [-27.10078393  -2.00123842  -0.15911452   0.040954     0.13457649
   0.1397321    1.10827997   1.11922181   1.79372735   4.39091699
   4.4221709   24.38882347]
beta-B1g nocc = 0
   mo_energy = [0.13814865 1.11052864 4.39783335]
beta-B2g nocc = 0
   mo_energy = [0.13814865 1.11052864 4.39783335]
beta-B3g nocc = 0
   mo_energy = [0.13457649 1.11922181 4.4221709 ]
beta-B1u nocc = 0
   mo_energy = [-0.49925813 -0.09645375  0.05148824  1.23317734 22.51920974]
beta-B2u nocc = 0
   mo_energy = [-0.49925813 -0.09645375  0.05148824  1.23317734 22.51920974]
beta-B3u nocc = 1  HOMO = -1.3067538263037  LUMO = -0.100907771577251
   mo_energy = [-1.30675383 -0.10090777  0.03285442  1.13524922 22.48071022]
multiplicity <S^2> = 2.004918  2S+1 = 3.0032769
E1 = -133.09604718840075  Ecoul = 34.29379133324646
cycle= 72 E= -98.8022558551543  delta_E= 1.42e-14  |g|= 4.72e-14  |ddm|= 1.04e-14
    CPU time for cycle= 72      0.03 sec, wall time      0.01 sec
diis-norm(errvec)=4.32017e-14
Linear dependence found in DIIS error vectors.
diis-c [-2.89052492e-16  1.25000000e-01  1.25000000e-01  1.25000000e-01
  1.25000000e-01  1.25000000e-01  1.25000000e-01  1.25000000e-01
  1.25000000e-01]
alpha HOMO (B3u) = -1.41582838362869  LUMO (Ag) = -0.165836391439528
alpha irrep_nelec = [2, 0, 0, 0, 1, 1, 1]
beta  irrep_nelec = [2, 0, 0, 0, 0, 0, 1]
alpha-Ag nocc = 2  HOMO = -2.40664198021588  LUMO = -0.165836391439528
   mo_energy = [-2.72057540e+01 -2.40664198e+00 -1.65836391e-01  2.55859886e-02
  1.26153645e-01  1.37404765e-01  1.02893198e+00  1.07484138e+00
  1.69090035e+00  4.19135297e+00  4.29079647e+00  2.42927292e+01]
alpha-B1g nocc = 0
   mo_energy = [0.13430363 1.06338692 4.26495282]
alpha-B2g nocc = 0
   mo_energy = [0.13430363 1.06338692 4.26495282]
alpha-B3g nocc = 0
   mo_energy = [0.12615364 1.02893198 4.19135297]
alpha-B1u nocc = 1  HOMO = -1.53573198309057  LUMO = -0.106277773707777
   mo_energy = [-1.53573198e+00 -1.06277774e-01  1.86190814e-02  1.03730607e+00
  2.23596148e+01]
alpha-B2u nocc = 1  HOMO = -1.53573198309057  LUMO = -0.106277773707777
   mo_energy = [-1.53573198e+00 -1.06277774e-01  1.86190814e-02  1.03730607e+00
  2.23596148e+01]
alpha-B3u nocc = 1  HOMO = -1.41582838362869  LUMO = -0.10203758793851
   mo_energy = [-1.41582838 -0.10203759  0.02869938  1.09711525 22.43753099]
beta-Ag nocc = 2  HOMO = -2.00123842065733  LUMO = -0.159114522394664
   mo_energy = [-27.10078393  -2.00123842  -0.15911452   0.040954     0.13457649
   0.1397321    1.10827997   1.11922181   1.79372735   4.39091699
   4.4221709   24.38882347]
beta-B1g nocc = 0
   mo_energy = [0.13814865 1.11052864 4.39783335]
beta-B2g nocc = 0
   mo_energy = [0.13814865 1.11052864 4.39783335]
beta-B3g nocc = 0
   mo_energy = [0.13457649 1.11922181 4.4221709 ]
beta-B1u nocc = 0
   mo_energy = [-0.49925813 -0.09645375  0.05148824  1.23317734 22.51920974]
beta-B2u nocc = 0
   mo_energy = [-0.49925813 -0.09645375  0.05148824  1.23317734 22.51920974]
beta-B3u nocc = 1  HOMO = -1.3067538263037  LUMO = -0.100907771577251
   mo_energy = [-1.30675383 -0.10090777  0.03285442  1.13524922 22.48071022]
multiplicity <S^2> = 2.004918  2S+1 = 3.0032769
E1 = -133.09604718840075  Ecoul = 34.293791333246446
cycle= 73 E= -98.8022558551543  delta_E= -1.42e-14  |g|= 4.62e-14  |ddm|= 4.22e-15
    CPU time for cycle= 73      0.03 sec, wall time      0.01 sec
diis-norm(errvec)=5.16896e-14
Linear dependence found in DIIS error vectors.
diis-c [-2.89052492e-16  1.25000000e-01  1.25000000e-01  1.25000000e-01
  1.25000000e-01  1.25000000e-01  1.25000000e-01  1.25000000e-01
  1.25000000e-01]
alpha HOMO (B3u) = -1.41582838362869  LUMO (Ag) = -0.165836391439528
alpha irrep_nelec = [2, 0, 0, 0, 1, 1, 1]
beta  irrep_nelec = [2, 0, 0, 0, 0, 0, 1]
alpha-Ag nocc = 2  HOMO = -2.40664198021588  LUMO = -0.165836391439528
   mo_energy = [-2.72057540e+01 -2.40664198e+00 -1.65836391e-01  2.55859886e-02
  1.26153645e-01  1.37404765e-01  1.02893198e+00  1.07484138e+00
  1.69090035e+00  4.19135297e+00  4.29079647e+00  2.42927292e+01]
alpha-B1g nocc = 0
   mo_energy = [0.13430363 1.06338692 4.26495282]
alpha-B2g nocc = 0
   mo_energy = [0.13430363 1.06338692 4.26495282]
alpha-B3g nocc = 0
   mo_energy = [0.12615364 1.02893198 4.19135297]
alpha-B1u nocc = 1  HOMO = -1.53573198309057  LUMO = -0.106277773707777
   mo_energy = [-1.53573198e+00 -1.06277774e-01  1.86190814e-02  1.03730607e+00
  2.23596148e+01]
alpha-B2u nocc = 1  HOMO = -1.53573198309057  LUMO = -0.106277773707777
   mo_energy = [-1.53573198e+00 -1.06277774e-01  1.86190814e-02  1.03730607e+00
  2.23596148e+01]
alpha-B3u nocc = 1  HOMO = -1.41582838362869  LUMO = -0.10203758793851
   mo_energy = [-1.41582838 -0.10203759  0.02869938  1.09711525 22.43753099]
beta-Ag nocc = 2  HOMO = -2.00123842065733  LUMO = -0.159114522394665
   mo_energy = [-27.10078393  -2.00123842  -0.15911452   0.040954     0.13457649
   0.1397321    1.10827997   1.11922181   1.79372735   4.39091699
   4.4221709   24.38882347]
beta-B1g nocc = 0
   mo_energy = [0.13814865 1.11052864 4.39783335]
beta-B2g nocc = 0
   mo_energy = [0.13814865 1.11052864 4.39783335]
beta-B3g nocc = 0
   mo_energy = [0.13457649 1.11922181 4.4221709 ]
beta-B1u nocc = 0
   mo_energy = [-0.49925813 -0.09645375  0.05148824  1.23317734 22.51920974]
beta-B2u nocc = 0
   mo_energy = [-0.49925813 -0.09645375  0.05148824  1.23317734 22.51920974]
beta-B3u nocc = 1  HOMO = -1.30675382630371  LUMO = -0.100907771577251
   mo_energy = [-1.30675383 -0.10090777  0.03285442  1.13524922 22.48071022]
multiplicity <S^2> = 2.004918  2S+1 = 3.0032769
E1 = -133.09604718840077  Ecoul = 34.293791333246475
cycle= 74 E= -98.8022558551543  delta_E=    0  |g|= 4.36e-14  |ddm|= 1.2e-14
    CPU time for cycle= 74      0.04 sec, wall time      0.04 sec
diis-norm(errvec)=6.56775e-14
Linear dependence found in DIIS error vectors.
diis-c [-2.89052492e-16  1.25000000e-01  1.25000000e-01  1.25000000e-01
  1.25000000e-01  1.25000000e-01  1.25000000e-01  1.25000000e-01
  1.25000000e-01]
alpha HOMO (B3u) = -1.41582838362869  LUMO (Ag) = -0.165836391439527
alpha irrep_nelec = [2, 0, 0, 0, 1, 1, 1]
beta  irrep_nelec = [2, 0, 0, 0, 0, 0, 1]
alpha-Ag nocc = 2  HOMO = -2.40664198021588  LUMO = -0.165836391439527
   mo_energy = [-2.72057540e+01 -2.40664198e+00 -1.65836391e-01  2.55859886e-02
  1.26153645e-01  1.37404765e-01  1.02893198e+00  1.07484138e+00
  1.69090035e+00  4.19135297e+00  4.29079647e+00  2.42927292e+01]
alpha-B1g nocc = 0
   mo_energy = [0.13430363 1.06338692 4.26495282]
alpha-B2g nocc = 0
   mo_energy = [0.13430363 1.06338692 4.26495282]
alpha-B3g nocc = 0
   mo_energy = [0.12615364 1.02893198 4.19135297]
alpha-B1u nocc = 1  HOMO = -1.53573198309057  LUMO = -0.106277773707777
   mo_energy = [-1.53573198e+00 -1.06277774e-01  1.86190814e-02  1.03730607e+00
  2.23596148e+01]
alpha-B2u nocc = 1  HOMO = -1.53573198309057  LUMO = -0.106277773707777
   mo_energy = [-1.53573198e+00 -1.06277774e-01  1.86190814e-02  1.03730607e+00
  2.23596148e+01]
alpha-B3u nocc = 1  HOMO = -1.41582838362869  LUMO = -0.10203758793851
   mo_energy = [-1.41582838 -0.10203759  0.02869938  1.09711525 22.43753099]
beta-Ag nocc = 2  HOMO = -2.00123842065733  LUMO = -0.159114522394665
   mo_energy = [-27.10078393  -2.00123842  -0.15911452   0.040954     0.13457649
   0.1397321    1.10827997   1.11922181   1.79372735   4.39091699
   4.4221709   24.38882347]
beta-B1g nocc = 0
   mo_energy = [0.13814865 1.11052864 4.39783335]
beta-B2g nocc = 0
   mo_energy = [0.13814865 1.11052864 4.39783335]
beta-B3g nocc = 0
   mo_energy = [0.13457649 1.11922181 4.4221709 ]
beta-B1u nocc = 0
   mo_energy = [-0.49925813 -0.09645375  0.05148824  1.23317734 22.51920974]
beta-B2u nocc = 0
   mo_energy = [-0.49925813 -0.09645375  0.05148824  1.23317734 22.51920974]
beta-B3u nocc = 1  HOMO = -1.30675382630371  LUMO = -0.100907771577251
   mo_energy = [-1.30675383 -0.10090777  0.03285442  1.13524922 22.48071022]
multiplicity <S^2> = 2.004918  2S+1 = 3.0032769
E1 = -133.09604718840075  Ecoul = 34.293791333246446
cycle= 75 E= -98.8022558551543  delta_E=    0  |g|= 4.04e-14  |ddm|= 8.88e-15
    CPU time for cycle= 75      0.04 sec, wall time      0.01 sec
alpha HOMO (B3u) = -1.41582838362868  LUMO (Ag) = -0.165836391439527
alpha irrep_nelec = [2, 0, 0, 0, 1, 1, 1]
beta  irrep_nelec = [2, 0, 0, 0, 0, 0, 1]
alpha-Ag nocc = 2  HOMO = -2.40664198021588  LUMO = -0.165836391439527
   mo_energy = [-2.72057540e+01 -2.40664198e+00 -1.65836391e-01  2.55859886e-02
  1.26153645e-01  1.37404765e-01  1.02893198e+00  1.07484138e+00
  1.69090035e+00  4.19135297e+00  4.29079647e+00  2.42927292e+01]
alpha-B1g nocc = 0
   mo_energy = [0.13430363 1.06338692 4.26495282]
alpha-B2g nocc = 0
   mo_energy = [0.13430363 1.06338692 4.26495282]
alpha-B3g nocc = 0
   mo_energy = [0.12615364 1.02893198 4.19135297]
alpha-B1u nocc = 1  HOMO = -1.53573198309057  LUMO = -0.106277773707778
   mo_energy = [-1.53573198e+00 -1.06277774e-01  1.86190814e-02  1.03730607e+00
  2.23596148e+01]
alpha-B2u nocc = 1  HOMO = -1.53573198309057  LUMO = -0.106277773707777
   mo_energy = [-1.53573198e+00 -1.06277774e-01  1.86190814e-02  1.03730607e+00
  2.23596148e+01]
alpha-B3u nocc = 1  HOMO = -1.41582838362868  LUMO = -0.10203758793851
   mo_energy = [-1.41582838 -0.10203759  0.02869938  1.09711525 22.43753099]
beta-Ag nocc = 2  HOMO = -2.00123842065734  LUMO = -0.159114522394665
   mo_energy = [-27.10078393  -2.00123842  -0.15911452   0.040954     0.13457649
   0.1397321    1.10827997   1.11922181   1.79372735   4.39091699
   4.4221709   24.38882347]
beta-B1g nocc = 0
   mo_energy = [0.13814865 1.11052864 4.39783335]
beta-B2g nocc = 0
   mo_energy = [0.13814865 1.11052864 4.39783335]
beta-B3g nocc = 0
   mo_energy = [0.13457649 1.11922181 4.4221709 ]
beta-B1u nocc = 0
   mo_energy = [-0.49925813 -0.09645375  0.05148824  1.23317734 22.51920974]
beta-B2u nocc = 0
   mo_energy = [-0.49925813 -0.09645375  0.05148824  1.23317734 22.51920974]
beta-B3u nocc = 1  HOMO = -1.30675382630371  LUMO = -0.100907771577251
   mo_energy = [-1.30675383 -0.10090777  0.03285442  1.13524922 22.48071022]
multiplicity <S^2> = 2.004918  2S+1 = 3.0032769
E1 = -133.09604718840072  Ecoul = 34.29379133324642
Extra cycle  E= -98.8022558551543  delta_E=    0  |g|= 5.23e-14  |ddm|= 8.88e-15
    CPU time for scf_cycle      2.86 sec, wall time      0.78 sec
    CPU time for SCF      2.86 sec, wall time      0.78 sec
converged SCF energy = -98.8022558551543  <S^2> = 2.004918  2S+1 = 3.0032769
irreps of each MO ['Ag' 'Ag' 'B1u' 'B2u' 'B3u' 'Ag' 'B1u' 'B2u' 'B3u' 'B1u' 'B2u' 'Ag' 'B3u'
 'Ag' 'B3g' 'B1g' 'B2g' 'Ag' 'Ag' 'B3g' 'B1u' 'B2u' 'B1g' 'B2g' 'Ag' 'B3u'
 'Ag' 'Ag' 'B3g' 'B1g' 'B2g' 'Ag' 'B1u' 'B2u' 'B3u' 'Ag']
irreps of each MO ['Ag' 'Ag' 'B3u' 'B1u' 'B2u' 'Ag' 'B3u' 'B1u' 'B2u' 'B3u' 'Ag' 'B1u' 'B2u'
 'Ag' 'B3g' 'B1g' 'B2g' 'Ag' 'Ag' 'B1g' 'B2g' 'Ag' 'B3g' 'B3u' 'B1u' 'B2u'
 'Ag' 'Ag' 'B1g' 'B2g' 'Ag' 'B3g' 'B3u' 'B1u' 'B2u' 'Ag']
irreps of each MO ['Ag' 'Ag' 'B3u' 'B1u' 'B2u' 'Ag' 'B3u' 'B1u' 'B2u' 'B1u' 'B2u' 'Ag' 'B3u'
 'Ag' 'B3g' 'B1g' 'B2g' 'Ag' 'Ag' 'B3g' 'B1u' 'B2u' 'B1g' 'B2g' 'Ag' 'B3u'
 'Ag' 'Ag' 'B3g' 'B1g' 'B2g' 'Ag' 'B2u' 'B1u' 'B3u' 'Ag']
