[Molden Format]
[ATOMS] AU
 B     1    5        0.0000000000        0.0000000000        0.0000000000
[GTO]
   1   0
 s   10 1.00
  0.2068882250D+04  0.1866274590D-02
  0.3106495700D+03  0.1425148170D-01
  0.7068303300D+02  0.6955161850D-01
  0.1986108030D+02  0.2325729330D+00
  0.6299304840D+01  0.4670787120D+00
  0.2127026970D+01  0.3634314400D+00
  0.4727971071D+01  0.0000000000D+00
  0.1190337736D+01  0.0000000000D+00
  0.3594116829D+00  0.0000000000D+00
  0.1267512469D+00  0.0000000000D+00
 s   10 1.00
  0.2068882250D+04  0.0000000000D+00
  0.3106495700D+03  0.0000000000D+00
  0.7068303300D+02  0.0000000000D+00
  0.1986108030D+02  0.0000000000D+00
  0.6299304840D+01  0.0000000000D+00
  0.2127026970D+01  0.0000000000D+00
  0.4727971071D+01 -0.1303937974D+00
  0.1190337736D+01 -0.1307889514D+00
  0.3594116829D+00  0.1130944484D+01
  0.1267512469D+00  0.0000000000D+00
 s   10 1.00
  0.2068882250D+04  0.0000000000D+00
  0.3106495700D+03  0.0000000000D+00
  0.7068303300D+02  0.0000000000D+00
  0.1986108030D+02  0.0000000000D+00
  0.6299304840D+01  0.0000000000D+00
  0.2127026970D+01  0.0000000000D+00
  0.4727971071D+01  0.0000000000D+00
  0.1190337736D+01  0.0000000000D+00
  0.3594116829D+00  0.0000000000D+00
  0.1267512469D+00  0.1000000000D+01
 p    4 1.00
  0.4727971071D+01  0.7459757992D-01
  0.1190337736D+01  0.3078466771D+00
  0.3594116829D+00  0.7434568342D+00
  0.1267512469D+00  0.0000000000D+00
 p    4 1.00
  0.4727971071D+01  0.0000000000D+00
  0.1190337736D+01  0.0000000000D+00
  0.3594116829D+00  0.0000000000D+00
  0.1267512469D+00  0.1000000000D+01
 
[5D]
[7F]
[9G]
[MO]
 Ene=       -8.8448
 Spin= Alpha
 Occup=        1.0000
   1     -0.9977789583
   2     -0.0131185699
   3      0.0037782534
   4      0.0000000000
   5      0.0000000000
   6      0.0000000000
   7      0.0000000000
   8      0.0000000000
   9      0.0000000000
 Ene=       -1.3880
 Spin= Alpha
 Occup=        1.0000
   1     -0.2378433009
   2      0.7485721727
   3      0.3111952399
   4      0.0000000000
   5      0.0000000000
   6      0.0000000000
   7      0.0000000000
   8      0.0000000000
   9      0.0000000000
 Ene=       -0.7369
 Spin= Alpha
 Occup=        0.0000
   1      0.0000000000
   2      0.0000000000
   3      0.0000000000
   4      0.0000000000
   5      0.0000000000
   6     -0.7696289935
   7      0.0000000000
   8      0.0000000000
   9     -0.3188052385
 Ene=       -0.7369
 Spin= Alpha
 Occup=        0.0000
   1      0.0000000000
   2      0.0000000000
   3      0.0000000000
   4      0.0000000000
   5     -0.7696289935
   6      0.0000000000
   7      0.0000000000
   8     -0.3188052385
   9      0.0000000000
 Ene=       -0.7369
 Spin= Alpha
 Occup=        0.0000
   1      0.0000000000
   2      0.0000000000
   3      0.0000000000
   4     -0.7696289935
   5      0.0000000000
   6      0.0000000000
   7     -0.3188052385
   8      0.0000000000
   9      0.0000000000
 Ene=       -0.1087
 Spin= Alpha
 Occup=        0.0000
   1      0.0000000000
   2      0.0000000000
   3      0.0000000000
   4      0.0000000000
   5      0.0000000000
   6      1.0218287200
   7      0.0000000000
   8      0.0000000000
   9     -1.2388809227
 Ene=       -0.1087
 Spin= Alpha
 Occup=        0.0000
   1      0.0000000000
   2      0.0000000000
   3      0.0000000000
   4      0.0000000000
   5      1.0218287200
   6      0.0000000000
   7      0.0000000000
   8     -1.2388809227
   9      0.0000000000
 Ene=       -0.1087
 Spin= Alpha
 Occup=        0.0000
   1      0.0000000000
   2      0.0000000000
   3      0.0000000000
   4      1.0218287200
   5      0.0000000000
   6      0.0000000000
   7     -1.2388809227
   8      0.0000000000
   9      0.0000000000
 Ene=       -0.1073
 Spin= Alpha
 Occup=        0.0000
   1      0.0220740182
   2     -1.7418713903
   3      1.8600452192
   4      0.0000000000
   5      0.0000000000
   6      0.0000000000
   7      0.0000000000
   8      0.0000000000
   9      0.0000000000
 Ene=       -8.7902
 Spin= Beta
 Occup=        1.0000
   1     -0.9972463029
   2     -0.0167225620
   3      0.0052726262
   4      0.0000000000
   5      0.0000000000
   6      0.0000000000
   7      0.0000000000
   8      0.0000000000
   9      0.0000000000
 Ene=       -0.8530
 Spin= Beta
 Occup=        0.0000
   1     -0.2353100793
   2      0.5297014685
   3      0.5365414226
   4      0.0000000000
   5      0.0000000000
   6      0.0000000000
   7      0.0000000000
   8      0.0000000000
   9      0.0000000000
 Ene=       -0.6285
 Spin= Beta
 Occup=        0.0000
   1      0.0000000000
   2      0.0000000000
   3      0.0000000000
   4      0.0000000000
   5      0.0000000000
   6     -0.7103228391
   7      0.0000000000
   8      0.0000000000
   9     -0.3886862256
 Ene=       -0.6285
 Spin= Beta
 Occup=        0.0000
   1      0.0000000000
   2      0.0000000000
   3      0.0000000000
   4      0.0000000000
   5     -0.7103228391
   6      0.0000000000
   7      0.0000000000
   8     -0.3886862256
   9      0.0000000000
 Ene=       -0.6285
 Spin= Beta
 Occup=        0.0000
   1      0.0000000000
   2      0.0000000000
   3      0.0000000000
   4     -0.7103228391
   5      0.0000000000
   6      0.0000000000
   7     -0.3886862256
   8      0.0000000000
   9      0.0000000000
 Ene=       -0.0854
 Spin= Beta
 Occup=        0.0000
   1      0.0000000000
   2      0.0000000000
   3      0.0000000000
   4      0.0000000000
   5      0.0000000000
   6      1.0639098576
   7      0.0000000000
   8      0.0000000000
   9     -1.2187640210
 Ene=       -0.0854
 Spin= Beta
 Occup=        0.0000
   1      0.0000000000
   2      0.0000000000
   3      0.0000000000
   4      0.0000000000
   5      1.0639098576
   6      0.0000000000
   7      0.0000000000
   8     -1.2187640210
   9      0.0000000000
 Ene=       -0.0854
 Spin= Beta
 Occup=        0.0000
   1      0.0000000000
   2      0.0000000000
   3      0.0000000000
   4      1.0639098576
   5      0.0000000000
   6      0.0000000000
   7     -1.2187640210
   8      0.0000000000
   9      0.0000000000
 Ene=       -0.0504
 Spin= Beta
 Occup=        0.0000
   1      0.0524263827
   2     -1.8203804672
   3      1.8079603069
   4      0.0000000000
   5      0.0000000000
   6      0.0000000000
   7      0.0000000000
   8      0.0000000000
   9      0.0000000000
