 **********************************************************************
                          MRCC program system
 **********************************************************************
 
                              Written by
     Mihaly Kallay, Peter R. Nagy, David Mester, Laszlo Gyevi-Nagy,
        Jozsef Csoka, P. Bernat Szabo, Zoltan Rolik, Gyula Samu,
     Jozsef Csontos, Bence Hegely, Adam Ganyecz, Istvan Ladjanszki,
       Lorant Szegedy, Bence Ladoczki, Klara Petrov, Mate Farkas,
                    Pal D. Mezei, and Reka A. Horvath
 
        Department of Physical Chemistry and Materials Science
            Budapest University of Technology and Economics
                  Budapest P.O.Box 91, H-1521 Hungary
 
                              www.mrcc.hu
 
                     Release date: August 28, 2023

 ************************ 2024-10-29 00:42:47 *************************
 Executing minp...

 Reading input from MINP...
 
 Input file:
 
basis=6-31G-EMSL
#iface=cfour
uncontract=off
calc=CC(3)
ccprog=mrcc
#mem=8GB
core=corr
itol=18
scftol=13
cctol=7
ccmaxit=999
scfmaxit=9999
scfiguess=ao
scftype=UHF
rohftype=semicanonical
rest=2
charge=+2
mult=2
refdet=serialno
1
2

symm=1
occ=2,0,0,0,0,0,0,0/1,0,0,0,0,0,0,0
geom
B

#Li 1 R
#R=3.065

#unit=angstroms

tprint=0.01
verbosity=3
#nstate=4
 
 
 Checking keyword combinations...
 
 Keywords:
 
 active=none
 agrid=ld0006-ld0590
 agrid_pssp=ld0006-ld0194
 agrid_pssp_sm=ld0006-ld0074
 basis=6-31g-emsl
 basis_sm=none
 basopt=off
 bfbasis=none
 bfgsmem=10
 bfgstol=1.0d-3
 boysalg=jacobi
 bpcompo=0.985
 bpcompv=0.98
 bpdfo=0.985
 bpocc=0.985
 bppdo=0.985
 bppdv=0.98
 bpedo=0.985
 bpedv=0.98
 calc=cc(3)
 ccmaxit=999
 ccprog=mrcc
 ccsdalg=disk
 ccsdmkl=seq
 ccsdrest=off
 ccsdthreads=2
 cctol=7
 charge=+2
 cialg=disk
 ciguess=off
 cmpgrp=auto
 comprest=off
 coord_sys=ric
 core=corr
 corembed=off
 csapprox=off
 cvs=off
 dboc=off
 delocsomofact=
 dendec=cholesky
 dens=0
 denscorr=0
 dfalg=lineq
 dfbasis_cab=none
 dfbasis_cor=none
 dfbasis_scf=none
 dfbasis_scf_sm=none
 dfintran=ovirt
 dft=off
 dhexc=adc(2)
 diag=david
 docc=
 domrad=10.d0
 drpaalg=fit
 dual=off
 dual_df=off
 ecp=auto
 edisp=off
 edisp_embed=off
 embed=off
 epairestfact=off
 epairscale=1.d0
 etemp=300
 epert=none
 eps=
 espcharge=off
 excrad=0.d0
 excrad_fin=0.000000000D+00
 fitting=coulomb
 fmm=off
 fmmord=8
 fnonorb=
 freq=off
 gamma=1.d0
 gauss=spher
 geom=zmat
 gopt=off
 ghost=none
 gtol=7
 grdens=off
 grid=auto
 grid_sm=auto
 gridbatch_cos=2000
 grtol=10
 guido_ct=off
 hamilton=dc
 iface=none
 intalg=auto
 ip_ea=off
 itol=18
 laptol=1.d-2
 lccoporder=trffirst
 lcorthr=normal
 lccrest=off
 ldfgrad_tol=8
 lmp2dens=on
 lnoepso=0.d0
 lnoepsv=1e-6
 localcc=off
 localcorrsymm=off
 locintrf=disk
 mact=
 maxact=off
 maxdim=200
 maxex=0
 maxmicroit=100
 mcscfiguess=hf
 mem=256MB
 mmprog=
 molden=on
 mpitasks=1
 mulmet=0
 mult=2
 nab=off
 nacto=0
 nactv=0
 naf_amp=3.16d-3
 naf_cor=off
 naf_f12=off
 naf_scf=off
 nafalg=albe
 nafdens=off
 naftyp=
 nchol=auto
 ndeps=1e-3
 nstate=1
 nsing=0
 nto=off
 ntrip=0
 num_grad=off
 occ=2,0,0,0,0,0,0,0/1,0,0,0,0,0,0,0
 occri=off
 oniom=off
 oniom_eechg=off
 oniom_pcm=off
 oniom_qcorr=off
 optalg=
 optmaxit=50
 optetol=1e-6
 optex=0
 optgtol=1e-4
 optstol=1e-3
 orblocc=off
 orbloce=off
 orbloco=off
 orblocv=off
 orblocguess=cholesky
 osveps=1e-3
 ovirt=off
 ovltol=1e-7
 ovosnorb=80.0
 pao_subsys_tol=1e-3
 pcm=off
 popul=off
 pressure=100000
 pssp=off
 ptfreq=0.0
 ptthreads=2
 qmreg=
 qmmm=off
 qro=off
 qscf=off
 redcost_exc=off
 redcost_tddft=off
 refdet=serialno
 rest=2
 rgrid=log3
 rism=off
 rohfcore=semicanonical
 rohftype=semicanonical
 scfalg=auto
 scf_conv=auto
 scfdamp=0.0d0
 scfdamp_mode=off
 scfdamp_end=9999
 scfdamp_dampstep=0.d0
 scfdamp_dtol=0.0d0
 scfdamp_maxfact=0.0d0
 scfdamp_minfact=0.0d0
 scfdiis=on
 scfdiis_dtol=0.0d0
 scfdiis_end=9999
 scfdiis_start=2
 scfdiis_step=1
 scfdiis_watch=off
 scfdiis_wrange=10
 scfdiis_wlimit=5
 scfdiis_delmax=2
 scfdtol=14
 scfext=10
 scfguessdens=
 scfiguess=ao
 scfloc=off
 scflshift=0.20
 scflshift_end=8
 scflshift_dtol=0.0
 scflshift_gaptol=0.20
 scfmaxit=9999
 scftype=uhf
 scftol=13
 scspe=1.d0
 scsph=1.d0
 scsps=1.2d0
 scsps_t=1.2d0
 scspt=0.33333333333333
 scspt_t=0.33333333333333
 scspv=1.d0
 spairtol=1e-4
 sqmprog=
 subminp=top
 symm=1
 talg=occ
 temp=298.15
 test=off
 theodore=off
 tlmo=0.999
 tpao=0.94
 tprint=0.01
 uncontract=off
 unit=angs
 usedisk=2
 verbosity=3
 wpairtol=0.100000000E-05

 ************************ 2024-10-29 00:42:48 *************************
 Executing integ...

 Allocation of 256.0 Mbytes of memory...
 
 Number of atoms:                  1
 Charge:                           2
 Number of electrons:              3
 Number of core electrons:         2
 Spin multiplicity:                2
 
                 Cartesian coordinates [bohr]      Atomic mass [AMU]  Z
   1  B     0.00000000    0.00000000    0.00000000    11.009305       5
 
 This molecule is a spherical top.
 
 Rotational constants [cm-1]: 

 
 Point group: Oh  
 Computational point group: D2h 
 
 Cartesian coordinates in standard orientation [bohr]
   1  B     0.00000000    0.00000000    0.00000000
 
 Nuclear repulsion energy [au]:          0.000000000000
 
 
 Basis set information:
 
 Maximum angular momentum: p
 Maximum number of contracted Gaussians:    3
 Maximum number of primitive Gaussians:    10
 Spherical harmonic GTOs are used.
 
   1  B  6-31g-emsl [ 10s 4p | 3s 2p ]
 
 Basis functions:
            1             2             3             4             5             6             7             8             9            10
    0    1B1s          1B2s          1B3s          1B1pz         1B1py         1B1px         1B2pz         1B2py         1B2px     
 
 Maximum number of basis functions per shell:    6
 Total number of basis functions:      9
 
 
 Character table for point group D2h:
 
          E  C2z C2y C2x  i  Qxy Qxz Qyz 
    Ag    1   1   1   1   1   1   1   1
    B1g   1   1  -1  -1   1   1  -1  -1
    B2g   1  -1   1  -1   1  -1   1  -1
    B3g   1  -1  -1   1   1  -1  -1   1
    Au    1   1   1   1  -1  -1  -1  -1
    B1u   1   1  -1  -1  -1  -1   1   1
    B2u   1  -1   1  -1  -1   1  -1   1
    B3u   1  -1  -1   1  -1   1   1  -1
 
 Number of basis functions per irrep:
    Ag      3
    B1g     0
    B2g     0
    B3g     0
    Au      0
    B1u     2
    B2u     2
    B3u     2
 
 
 Calculation of overlap integrals...
 CPU time [min]:     0.144                   Wall time [min]:     0.010
 
 Calculation of the square root of the overlap matrix...
 Minimum eigenvalue of the overlap matrix: 0.151854E+00
 CPU time [min]:     0.165                   Wall time [min]:     0.011
 
 Calculation of kinetic energy integrals...
 CPU time [min]:     0.166                   Wall time [min]:     0.011
 Calculation of nuclear attraction integrals...
 CPU time [min]:     0.167                   Wall time [min]:     0.011
 
 Calculation of prescreening integrals...
 CPU time [min]:     0.172                   Wall time [min]:     0.011
 
 Calculation of two-electron integrals...
   2% done.
 100% done.
 CPU time [min]:     0.189                   Wall time [min]:     0.011

 ************************ 2024-10-29 00:42:49 *************************
 Executing scf...

 @scfsetup: integrals taken from disk
            mrcc/integ binary format
 @scfsetup: calc on blockdiagonal matrices
            using symmetry adapted basis
 @scfsetup: diis switched on
 @scfsetup: number of steps to extrapolate from  10
 @scfsetup: tolerance in energy deviation    0.100000E-12
            tolerance in density deviation    0.100000E-13
 @scfsetup: maximum number of iterations:9999
 @scfsetup: unrestricted hf calc
 @scfsetup: starting scf from diagonal ao guess
 @scfsetup: occupation set:
            by user in MINP
 @scfsetup: the forced occuapation is
 ALPHA OCC:   2   0   0   0   0   0   0   0
 BETA  OCC:   1   0   0   0   0   0   0   0
 @scfsetup: Parameter-set for SCF acceleration: normal
 @scfsetup: diis runs from iteration:   2
 @scfsetup: diis runs to iteration:9999
 @scfsetup: diis runs in every iteration
 @scfsetup: diiswatch is disabled                   
 @scfsetup: diis dtol criteria to switch on:      0.0000E+00
           (or the iteration number below is reached)
 @scfsetup: static damping scheme
            iteration step criteria to turn damping off: 3
 @scfsetup: dynamic level shifting
            tolarance in HOMO-LUMO gap:  0.200
            tolarance in density deviation:     0.0000E+00
            iteration step criteria to turn level shifting off: 8
 Allocation of 256.0 Mbytes of memory...
 ======================================================================
 ITERATION STEP   1
 CPU time [min]:     0.008                   Wall time [min]:     0.010
 

 SCF control                  : initial
 Damping factor/level shift   : 0.000/0.200
 DIIS [start/end/frequency]   :   2 /*** /  1

 Gradient norm:      0.0000E+00
 RMS of alpha [F,P] :                                  0.25067115453364
 RMS of beta  [F,P] :                                  0.00616059787997
 RMS of alpha difference density:                      0.13867968066341
 RMS of beta  difference density:                      0.14808314643294
 Gap [au]:  0.35737305
 ALPHA OCC:   2   0   0   0   0   0   0   0
 BETA  OCC:   1   0   0   0   0   0   0   0
 
 ***HARTREE-FOCK ENERGY IN STEP   1 IS        -16.9627045555301414 [AU]
 ======================================================================
 ITERATION STEP   2
 CPU time [min]:     0.009                   Wall time [min]:     0.011
 

 SCF control                  : diis
 Damping factor/level shift   : 0.000/0.000
 DIIS [start/end/frequency]   :   2 /*** /  1

 Gradient norm:      2.3146E-01
 DIIS is running in this iteration step.
 RMS of alpha [F,P] :                                  0.02023727960333
 RMS of beta  [F,P] :                                  0.00000000000000
 RMS of alpha difference density:                      0.03566525745705
 RMS of beta  difference density:                      0.00168187305434
 Gap [au]:  0.65943204
 ALPHA OCC:   2   0   0   0   0   0   0   0
 BETA  OCC:   1   0   0   0   0   0   0   0
 
 ***HARTREE-FOCK ENERGY IN STEP   2 IS        -23.3677719341422971 [AU]
 
 Step comparison  Energy Drift [au]  DIIS error drift  Gradient drift
        1            6.4051E+00         2.3051E-01      -2.3146E-01
        2            2.3368E+01         1.0000E-14      -2.3146E-01
 Warning! The gradient goes uphill (with respect to previous step).
 Warning! The gradient goes uphill (with respect to step   1 ).
 ======================================================================
 ITERATION STEP   3
 CPU time [min]:     0.009                   Wall time [min]:     0.011
 

 SCF control                  : diis
 Damping factor/level shift   : 0.000/0.000
 DIIS [start/end/frequency]   :   2 /*** /  1

 Gradient norm:      6.0206E-02
 DIIS is running in this iteration step.
 RMS of alpha [F,P] :                                  0.00393752933849
 RMS of beta  [F,P] :                                  0.00000000000000
 RMS of alpha difference density:                      0.00991951989939
 RMS of beta  difference density:                      0.00004217643874
 Gap [au]:  0.65246689
 ALPHA OCC:   2   0   0   0   0   0   0   0
 BETA  OCC:   1   0   0   0   0   0   0   0
 
 ***HARTREE-FOCK ENERGY IN STEP   3 IS        -23.3714975463087882 [AU]
 
 Step comparison  Energy Drift [au]  DIIS error drift  Gradient drift
        2            3.7256E-03         1.6300E-02       1.7126E-01
 Warning! The gradient goes uphill (with respect to step   1 ).
 ======================================================================
 ITERATION STEP   4
 CPU time [min]:     0.010                   Wall time [min]:     0.012
 

 SCF control                  : diis
 Damping factor/level shift   : 0.000/0.000
 DIIS [start/end/frequency]   :   2 /*** /  1

 Gradient norm:      7.6579E-03
 DIIS is running in this iteration step.
 RMS of alpha [F,P] :                                  0.00049971213511
 RMS of beta  [F,P] :                                  0.00000000000000
 RMS of alpha difference density:                      0.00141032692680
 RMS of beta  difference density:                      0.00002728759072
 Gap [au]:  0.65113509
 ALPHA OCC:   2   0   0   0   0   0   0   0
 BETA  OCC:   1   0   0   0   0   0   0   0
 
 ***HARTREE-FOCK ENERGY IN STEP   4 IS        -23.3717330016503659 [AU]
 
 Step comparison  Energy Drift [au]  DIIS error drift  Gradient drift
        3            2.3546E-04         3.4378E-03       5.2548E-02
 Warning! The gradient goes uphill (with respect to step   1 ).
 ======================================================================
 ITERATION STEP   5
 CPU time [min]:     0.010                   Wall time [min]:     0.012
 

 SCF control                  : diis
 Damping factor/level shift   : 0.000/0.000
 DIIS [start/end/frequency]   :   2 /*** /  1

 Gradient norm:      5.7277E-05
 DIIS is running in this iteration step.
 RMS of alpha [F,P] :                                  0.00000022973949
 RMS of beta  [F,P] :                                  0.00000000000000
 RMS of alpha difference density:                      0.00000053265130
 RMS of beta  difference density:                      0.00000083967842
 Gap [au]:  0.65114023
 ALPHA OCC:   2   0   0   0   0   0   0   0
 BETA  OCC:   1   0   0   0   0   0   0   0
 
 ***HARTREE-FOCK ENERGY IN STEP   5 IS        -23.3717368897210207 [AU]
 
 Step comparison  Energy Drift [au]  DIIS error drift  Gradient drift
        4            3.8881E-06         4.9948E-04       7.6006E-03
 Warning! The gradient goes uphill (with respect to step   1 ).
 ======================================================================
 ITERATION STEP   6
 CPU time [min]:     0.011                   Wall time [min]:     0.013
 

 SCF control                  : diis
 Damping factor/level shift   : 0.000/0.000
 DIIS [start/end/frequency]   :   2 /*** /  1

 Gradient norm:      5.5466E-06
 DIIS is running in this iteration step.
 RMS of alpha [F,P] :                                  0.00000004118045
 RMS of beta  [F,P] :                                  0.00000000000000
 RMS of alpha difference density:                      0.00000005048158
 RMS of beta  difference density:                      0.00000011559527
 Gap [au]:  0.65114017
 ALPHA OCC:   2   0   0   0   0   0   0   0
 BETA  OCC:   1   0   0   0   0   0   0   0
 
 ***HARTREE-FOCK ENERGY IN STEP   6 IS        -23.3717368897576172 [AU]
 
 Step comparison  Energy Drift [au]  DIIS error drift  Gradient drift
        5            3.6597E-11         1.8856E-07       5.1731E-05
 Warning! The gradient goes uphill (with respect to step   1 ).
 ======================================================================
 ITERATION STEP   7
 CPU time [min]:     0.011                   Wall time [min]:     0.014
 

 SCF control                  : diis
 Damping factor/level shift   : 0.000/0.000
 DIIS [start/end/frequency]   :   2 /*** /  1

 Gradient norm:      9.8303E-07
 DIIS is running in this iteration step.
 RMS of alpha [F,P] :                                  0.00000000718117
 RMS of beta  [F,P] :                                  0.00000000000000
 RMS of alpha difference density:                      0.00000000709387
 RMS of beta  difference density:                      0.00000001598529
 Gap [au]:  0.65114018
 ALPHA OCC:   2   0   0   0   0   0   0   0
 BETA  OCC:   1   0   0   0   0   0   0   0
 
 ***HARTREE-FOCK ENERGY IN STEP   7 IS        -23.3717368897579831 [AU]
 
 Step comparison  Energy Drift [au]  DIIS error drift  Gradient drift
        6            3.6593E-13         3.3999E-08       4.5636E-06
 Warning! The gradient goes uphill (with respect to step   1 ).
 ======================================================================
 ITERATION STEP   8
 CPU time [min]:     0.011                   Wall time [min]:     0.014
 

 SCF control                  : diis
 Damping factor/level shift   : 0.000/0.000
 DIIS [start/end/frequency]   :   2 /*** /  1

 Gradient norm:      5.1877E-08
 DIIS is running in this iteration step.
 RMS of alpha [F,P] :                                  0.00000000039131
 RMS of beta  [F,P] :                                  0.00000000000000
 RMS of alpha difference density:                      0.00000000044846
 RMS of beta  difference density:                      0.00000000104252
 Gap [au]:  0.65114018
 ALPHA OCC:   2   0   0   0   0   0   0   0
 BETA  OCC:   1   0   0   0   0   0   0   0
 
 ***HARTREE-FOCK ENERGY IN STEP   8 IS        -23.3717368897579938 [AU]
 
 Step comparison  Energy Drift [au]  DIIS error drift  Gradient drift
        7            1.0658E-14         6.7899E-09       9.3115E-07
 Warning! The gradient goes uphill (with respect to step   1 ).
 ======================================================================
 ITERATION STEP   9
 CPU time [min]:     0.012                   Wall time [min]:     0.015
 

 SCF control                  : diis
 Damping factor/level shift   : 0.000/0.000
 DIIS [start/end/frequency]   :   2 /*** /  1

 Gradient norm:      5.3177E-09
 DIIS is running in this iteration step.
 RMS of alpha [F,P] :                                  0.00000000003864
 RMS of beta  [F,P] :                                  0.00000000000000
 RMS of alpha difference density:                      0.00000000004010
 RMS of beta  difference density:                      0.00000000009166
 Gap [au]:  0.65114018
 ALPHA OCC:   2   0   0   0   0   0   0   0
 BETA  OCC:   1   0   0   0   0   0   0   0
 
 ***HARTREE-FOCK ENERGY IN STEP   9 IS        -23.3717368897579760 [AU]
 
 Step comparison  Energy Drift [au]  DIIS error drift  Gradient drift
        8           -1.7764E-14         3.5266E-10       4.6559E-08
 Warning! The energy goes uphill (with respect to previous step).
 Warning! The gradient goes uphill (with respect to step   1 ).
 ======================================================================
 ITERATION STEP  10
 CPU time [min]:     0.012                   Wall time [min]:     0.015
 

 SCF control                  : diis
 Damping factor/level shift   : 0.000/0.000
 DIIS [start/end/frequency]   :   2 /*** /  1

 Gradient norm:      1.2129E-10
 DIIS is running in this iteration step.
 RMS of alpha [F,P] :                                  0.00000000000023
 RMS of beta  [F,P] :                                  0.00000000000000
 RMS of alpha difference density:                      0.00000000000027
 RMS of beta  difference density:                      0.00000000000194
 Gap [au]:  0.65114018
 ALPHA OCC:   2   0   0   0   0   0   0   0
 BETA  OCC:   1   0   0   0   0   0   0   0
 
 ***HARTREE-FOCK ENERGY IN STEP  10 IS        -23.3717368897579760 [AU]
 
 Step comparison  Energy Drift [au]  DIIS error drift  Gradient drift
        9            0.0000E+00         3.8417E-11       5.1964E-09
 Warning! The energy goes uphill (with respect to previous step).
 Warning! The gradient goes uphill (with respect to step   1 ).
 ======================================================================
 ITERATION STEP  11
 CPU time [min]:     0.013                   Wall time [min]:     0.016
 

 SCF control                  : diis
 Damping factor/level shift   : 0.000/0.000
 DIIS [start/end/frequency]   :   2 /*** /  1

 Gradient norm:      5.9595E-12
 DIIS is running in this iteration step.
 RMS of alpha [F,P] :                                  0.00000000000001
 RMS of beta  [F,P] :                                  0.00000000000000
 RMS of alpha difference density:                      0.00000000000021
 RMS of beta  difference density:                      0.00000000000156
 Gap [au]:  0.65114018
 ALPHA OCC:   2   0   0   0   0   0   0   0
 BETA  OCC:   1   0   0   0   0   0   0   0
 
 ***HARTREE-FOCK ENERGY IN STEP  11 IS        -23.3717368897579831 [AU]
 
 Step comparison  Energy Drift [au]  DIIS error drift  Gradient drift
       10            7.1054E-15         2.1613E-13       1.1533E-10
 Warning! The gradient goes uphill (with respect to step   1 ).
 ======================================================================
 ITERATION STEP  12
 CPU time [min]:     0.013                   Wall time [min]:     0.016
 

 SCF control                  : diis
 Damping factor/level shift   : 0.000/0.000
 DIIS [start/end/frequency]   :   2 /*** /  1

 Gradient norm:      9.7358E-11
 DIIS is running in this iteration step.
 RMS of alpha [F,P] :                                  0.00000000000018
 RMS of beta  [F,P] :                                  0.00000000000000
 RMS of alpha difference density:                      0.00000000000015
 RMS of beta  difference density:                      0.00000000000137
 Gap [au]:  0.65114018
 ALPHA OCC:   2   0   0   0   0   0   0   0
 BETA  OCC:   1   0   0   0   0   0   0   0
 
 ***HARTREE-FOCK ENERGY IN STEP  12 IS        -23.3717368897579867 [AU]
 
 Step comparison  Energy Drift [au]  DIIS error drift  Gradient drift
       11            3.5527E-15        -1.6996E-13      -9.1399E-11
 Warning! The DIIS error goes uphill (with respect to previous step).
 Warning! The DIIS error goes uphill (with respect to step  11 ).
 Warning! The gradient goes uphill (with respect to previous step).
 Warning! The gradient goes uphill (with respect to step   1 ).
 ======================================================================
 ITERATION STEP  13
 CPU time [min]:     0.014                   Wall time [min]:     0.017
 

 SCF control                  : diis
 Damping factor/level shift   : 0.000/0.000
 DIIS [start/end/frequency]   :   2 /*** /  1

 Gradient norm:      2.2937E-11
 DIIS is running in this iteration step.
 RMS of alpha [F,P] :                                  0.00000000000008
 RMS of beta  [F,P] :                                  0.00000000000000
 RMS of alpha difference density:                      0.00000000000003
 RMS of beta  difference density:                      0.00000000000019
 Gap [au]:  0.65114018
 ALPHA OCC:   2   0   0   0   0   0   0   0
 BETA  OCC:   1   0   0   0   0   0   0   0
 
 ***HARTREE-FOCK ENERGY IN STEP  13 IS        -23.3717368897579831 [AU]
 
 Step comparison  Energy Drift [au]  DIIS error drift  Gradient drift
       12           -3.5527E-15         1.0341E-13       7.4422E-11
       11            0.0000E+00        -6.6548E-14      -2.2937E-11
 Warning! The energy goes uphill (with respect to previous step).
 Warning! The DIIS error goes uphill (with respect to step  11 ).
 Warning! The gradient goes uphill (with respect to step   1 ).
 ======================================================================
 ITERATION STEP  14
 CPU time [min]:     0.014                   Wall time [min]:     0.018
 

 SCF control                  : diis
 Damping factor/level shift   : 0.000/0.000
 DIIS [start/end/frequency]   :   2 /*** /  1

 Gradient norm:      2.4728E-11
 DIIS is running in this iteration step.
 RMS of alpha [F,P] :                                  0.00000000000003
 RMS of beta  [F,P] :                                  0.00000000000000
 RMS of alpha difference density:                      0.00000000000004
 RMS of beta  difference density:                      0.00000000000042
 Gap [au]:  0.65114018
 ALPHA OCC:   2   0   0   0   0   0   0   0
 BETA  OCC:   1   0   0   0   0   0   0   0
 
 ***HARTREE-FOCK ENERGY IN STEP  14 IS        -23.3717368897579831 [AU]
 
 Step comparison  Energy Drift [au]  DIIS error drift  Gradient drift
       13            0.0000E+00         4.2876E-14      -1.7917E-12
       11            0.0000E+00        -2.3671E-14      -2.4728E-11
 Warning! The energy goes uphill (with respect to previous step).
 Warning! The DIIS error goes uphill (with respect to step  11 ).
 Warning! The gradient goes uphill (with respect to previous step).
 Warning! The gradient goes uphill (with respect to step   1 ).
 ======================================================================
 ITERATION STEP  15
 CPU time [min]:     0.015                   Wall time [min]:     0.018
 

 SCF control                  : diis
 Damping factor/level shift   : 0.000/0.000
 DIIS [start/end/frequency]   :   2 /*** /  1

 Gradient norm:      2.2766E-12
 DIIS is running in this iteration step.
 RMS of alpha [F,P] :                                  0.00000000000000
 RMS of beta  [F,P] :                                  0.00000000000000
 RMS of alpha difference density:                      0.00000000000003
 RMS of beta  difference density:                      0.00000000000014
 Gap [au]:  0.65114018
 ALPHA OCC:   2   0   0   0   0   0   0   0
 BETA  OCC:   1   0   0   0   0   0   0   0
 
 ***HARTREE-FOCK ENERGY IN STEP  15 IS        -23.3717368897579831 [AU]
 
 Step comparison  Energy Drift [au]  DIIS error drift  Gradient drift
       14            0.0000E+00         3.0829E-14       2.2452E-11
       15            0.0000E+00         7.1580E-15      -2.2766E-12
 Warning! The energy goes uphill (with respect to previous step).
 Warning! The gradient goes uphill (with respect to step   1 ).
 ======================================================================
 ITERATION STEP  16
 CPU time [min]:     0.015                   Wall time [min]:     0.019
 

 SCF control                  : diis
 Damping factor/level shift   : 0.000/0.000
 DIIS [start/end/frequency]   :   2 /*** /  1

 Gradient norm:      1.2245E-11
 DIIS is running in this iteration step.
 RMS of alpha [F,P] :                                  0.00000000000004
 RMS of beta  [F,P] :                                  0.00000000000000
 RMS of alpha difference density:                      0.00000000000004
 RMS of beta  difference density:                      0.00000000000025
 Gap [au]:  0.65114018
 ALPHA OCC:   2   0   0   0   0   0   0   0
 BETA  OCC:   1   0   0   0   0   0   0   0
 
 ***HARTREE-FOCK ENERGY IN STEP  16 IS        -23.3717368897579760 [AU]
 
 Step comparison  Energy Drift [au]  DIIS error drift  Gradient drift
       15           -7.1054E-15        -3.1340E-14      -9.9679E-12
 Warning! The energy goes uphill (with respect to previous step).
 Warning! The DIIS error goes uphill (with respect to previous step).
 Warning! The DIIS error goes uphill (with respect to step  15 ).
 Warning! The gradient goes uphill (with respect to previous step).
 Warning! The gradient goes uphill (with respect to step   1 ).
 ======================================================================
 ITERATION STEP  17
 CPU time [min]:     0.016                   Wall time [min]:     0.020
 

 SCF control                  : diis
 Damping factor/level shift   : 0.000/0.000
 DIIS [start/end/frequency]   :   2 /*** /  1

 Gradient norm:      3.5277E-12
 DIIS is running in this iteration step.
 RMS of alpha [F,P] :                                  0.00000000000001
 RMS of beta  [F,P] :                                  0.00000000000000
 RMS of alpha difference density:                      0.00000000000001
 RMS of beta  difference density:                      0.00000000000007
 Gap [au]:  0.65114018
 ALPHA OCC:   2   0   0   0   0   0   0   0
 BETA  OCC:   1   0   0   0   0   0   0   0
 
 ***HARTREE-FOCK ENERGY IN STEP  17 IS        -23.3717368897579831 [AU]
 
 Step comparison  Energy Drift [au]  DIIS error drift  Gradient drift
       16            7.1054E-15         2.9765E-14       8.7169E-12
       15            0.0000E+00        -1.5754E-15      -3.5277E-12
 Warning! The DIIS error goes uphill (with respect to step  15 ).
 Warning! The gradient goes uphill (with respect to step   1 ).
 ======================================================================
 ITERATION STEP  18
 CPU time [min]:     0.016                   Wall time [min]:     0.020
 

 SCF control                  : diis
 Damping factor/level shift   : 0.000/0.000
 DIIS [start/end/frequency]   :   2 /*** /  1

 Gradient norm:      1.5784E-13
 DIIS is running in this iteration step.
 RMS of alpha [F,P] :                                  0.00000000000000
 RMS of beta  [F,P] :                                  0.00000000000000
 RMS of alpha difference density:                      0.00000000000000
 RMS of beta  difference density:                      0.00000000000000
 Gap [au]:  0.65114018
 ALPHA OCC:   2   0   0   0   0   0   0   0
 BETA  OCC:   1   0   0   0   0   0   0   0
 
 ***HARTREE-FOCK ENERGY IN STEP  18 IS        -23.3717368897579796 [AU]
 
 Step comparison  Energy Drift [au]  DIIS error drift  Gradient drift
       17           -3.5527E-15         4.3269E-15       3.3698E-12
       18           -3.5527E-15         2.7514E-15      -1.5784E-13
 Warning! The energy goes uphill (with respect to previous step).
 Warning! The gradient goes uphill (with respect to step   1 ).
 ======================================================================
 
 SUCCESS...
 THE SCF ITERATION HAS CONVERGED!
 
                   Ag  B1g B2g B3g Au  B1u B2u B3u 
 FINAL ALPHA OCC:   2   0   0   0   0   0   0   0
 FINAL BETA  OCC:   1   0   0   0   0   0   0   0
 
 ***FINAL HARTREE-FOCK ENERGY:        -23.3717368897579796 [AU]
 
 Expectation value of S^2:  0.7500
 Average multiplicity:      2.0000
 
 Orbital energies [au]:
      Irrep         Alpha          Beta
    1   Ag        -8.844801      -8.790241
 
    2   Ag        -1.387994      -0.853000
 
    3   B1u       -0.736854      -0.628544
    4   B2u       -0.736854      -0.628544
    5   B3u       -0.736854      -0.628544
    6   B1u       -0.108714      -0.085385
    7   B2u       -0.108714      -0.085385
    8   B3u       -0.108714      -0.085385
    9   Ag        -0.107326      -0.050418
 
 RETURNING FROM SCF ALGORITHM
 ======================================================================

 ************************ 2024-10-29 00:42:50 *************************
 Executing ovirt...

 ovirt, the routine of orbital optimization and integral transformation 
Tue Oct 29 00:42:50 PDT 2024
 memory =                    256  Mb              33554432  8 byte word
 mrccboot = T
 scftype  = uhf  
 localcc  = off 
 core     = corr  
 ovirt    = off  
 ccprog   = mrcc
 dfnbasis =                      0
 dfbasis_cor =none                
 lmp2dens = on 
 dens =                      0
 verblev =                      3
 task     =                      4
 epsilon =   0.000000000000000E+000
 lmp2= on 
 localNO  =  F
 localMP2 =  F
 localMP2_TEST =  F
 LMP2_shortcut =  F
 FOCKTR   =  F
 Allocated memory:                     256  Mb
 onbasis=                     9
 UHF calculation! 
 integral transformation: AOs --- MOs (alpha-alpha)
 # of basis functions, # of int. blocks     9     1
100 % 
 second part
100 %
 integral transformation is completed! 
 integral transformation: AOs ------ MOs (beta-beta)
 # of basis functions, # of int. blocks     9     1
100 % 
 second part
100 %
 integral transformation is completed! 
 integral transformation: AOs ----- MOs (alpha-beta)
# of basis functions, # of int. blocks     9     1
 integral transformation
======================================== 
Tue Oct 29 00:42:50 PDT 2024
  ovirt terminated normally 

 ************************ 2024-10-29 00:42:50 *************************
 Executing goldstone...

 Generation of CC equations in terms of H and T...
 Generation of antisymmetrized Goldstone diagrams...
 Number of diagrams in T^1 equations:    15
 Number of diagrams in T^2 equations:    37
 Number of diagrams in T^3 equations:    47
 Translation of diagrams to factorized equations...
 Optimizing intermediate calculation...
 Number of floating-point operations per iteration step:   1.5253E+04
 Probable CPU time per iteration step (hours):      0.00
 Required memory (Mbytes):       0.4
 Number of intermediates:                                  67
 Number of intermediates to be stored:                     30
 Length of intermediate file (Mbytes):       0.0

 ************************ 2024-10-29 00:42:50 *************************
 Executing xmrcc...

 **********************************************************************
 CC(                     3 ) calculation 
 
 
 Allocation of 256.0 Mbytes of memory...
 Number of spinorbitals:                    18
 Number of alpha electrons:                        2
 Number of beta electrons:                         1
 Spin multiplicity:                     2
 z-component of spin:  0.5
 Spatial symmetry:                      1
 Convergence criterion:  1.0E-07
 Construction of occupation graphs...
 Number of                     0 -fold excitations:                      1
 Number of                     1 -fold excitations:                      4
 Number of                     2 -fold excitations:                     31
 Number of                     3 -fold excitations:                     18
 Total number of configurations:                     54
 Calculation of coupling coefficients...
 Length of intermediate file (Mbytes):       0.3
 
 ======================================================================
 
 Memory requirements /Mbyte/: 
               Minimal        Optimal
 Real*8:          0.0668         0.0668
 Integer:         3.3799
 Total:           3.4467         3.4467
 

 ************************ 2024-10-29 00:42:51 *************************
 Executing goldstone...

 Generation of CC equations in terms of H and T...
 Generation of antisymmetrized Goldstone diagrams...
 Number of diagrams in T^1 equations:    15
 Number of diagrams in T^2 equations:    34
 Number of diagrams in T^3 equations:     2
 Translation of diagrams to factorized equations...
 Optimizing intermediate calculation...
 Number of floating-point operations per iteration step:   5.7277E+03
 Probable CPU time per iteration step (hours):      0.00
 Required memory (Mbytes):       0.4
 Number of intermediates:                                  49
 Number of intermediates to be stored:                     20
 Length of intermediate file (Mbytes):       0.0

 ************************ 2024-10-29 00:42:51 *************************
 Executing xmrcc...

 **********************************************************************
 CC(2)(3) calculation 
 
 
 Allocation of 256.0 Mbytes of memory...
 Number of spinorbitals:                    18
 Number of alpha electrons:                        2
 Number of beta electrons:                         1
 Spin multiplicity:                     2
 z-component of spin:  0.5
 Spatial symmetry:                      1
 Convergence criterion:  1.0E-07
 Construction of occupation graphs...
 Number of                     0 -fold excitations:                      1
 Number of                     1 -fold excitations:                      4
 Number of                     2 -fold excitations:                     31
 Total number of configurations:                     36
 Calculation of coupling coefficients...
 Length of intermediate file (Mbytes):       0.2
 
 ======================================================================
 
 Spin case  1   Alpha:  2   Beta:  1
 Number of excitations:                     18
 Number of                     3 -fold excitations:                     18
 
 Memory requirements /Mbyte/: 
               Minimal        Optimal
 Real*8:         22.2466        22.2466
 Integer:         3.3570
 Total:          25.6036        25.6036
 

 ************************ 2024-10-29 00:42:51 *************************
 Executing mrcc...

 **********************************************************************
 CCSD(T) calculation                                                    
 
 
 OpenMP parallel version is running.
 Number of CPU cores:  64
 Allocation of   22.2 Mbytes of memory...
 Number of spinorbitals:  18
 Number of alpha electrons:  2
 Number of beta  electrons:  1
 Spin multiplicity: 2
 z-component of spin:  0.5
 Spatial symmetry: 1
 Convergence criterion:  1.0E-07
 Construction of occupation graphs...
 Number of 0-fold excitations: 1
 Number of 1-fold excitations: 4
 Number of 2-fold excitations: 31
 Total number of determinants: 36
 Calculation of coupling coefficients...
 Initial cluster amplitudes are generated.
 Length of intermediate file (Mbytes):       0.2
 Reading integral list from unit 55...
 Sorting integrals...
 Sorting integrals...
 Sorting integrals...
 Sorting integrals...
 Energy of reference determinant [au]:     -23.371736889758
 Calculation of MP denominators...
 
 Starting CC iteration...
 ======================================================================
 Norm of residual vector:     0.11095686
 CPU time [min]:     0.423                   Wall time [min]:     0.010
 
 Iteration  1  CC energy:   -23.37271433  Energy decrease:   0.00097744
 ======================================================================
 Norm of residual vector:     0.01139569
 CPU time [min]:     0.460                   Wall time [min]:     0.010
 
 Iteration  2  CC energy:   -23.37280170  Energy decrease:   0.00008737
 ======================================================================
 Norm of residual vector:     0.00088773
 CPU time [min]:     0.503                   Wall time [min]:     0.011
 
 Iteration  3  CC energy:   -23.37280950  Energy decrease:   0.00000781
 ======================================================================
 Norm of residual vector:     0.00004666
 CPU time [min]:     0.548                   Wall time [min]:     0.012
 
 Iteration  4  CC energy:   -23.37280951  Energy decrease:   3.0625E-09
 ======================================================================
 Norm of residual vector:     0.00000500
 CPU time [min]:     0.594                   Wall time [min]:     0.013
 
 Iteration  5  CC energy:   -23.37280951  Energy decrease:   3.1839E-09
 ======================================================================
 Norm of residual vector:     0.00000066
 CPU time [min]:     0.647                   Wall time [min]:     0.014
 
 Iteration  6  CC energy:   -23.37280951  Energy decrease:   4.6510E-10
 ======================================================================
 Norm of residual vector:     0.00000005
 CPU time [min]:     0.679                   Wall time [min]:     0.015
 
 Iteration  7  CC energy:   -23.37280951  Energy decrease:   3.7872E-12
 ======================================================================
 
 Iteration has converged in  7 steps.
 
 Final results:
 Total CCSD energy [au]:                      -23.372809509970
 
 Perturbative corrections are calculated...
 ======================================================================
 Spin case  1   Alpha:  2   Beta:  1
 Number of excitations:        18
 CPU time [min]:     0.696                   Wall time [min]:     0.015
 ======================================================================
 Number of 3-fold excitations: 18
 
 
 CPU time [min]:     0.697                   Wall time [min]:     0.015
 
 Total CCSD[T] energy [au]:                   -23.372810050374
 Total CCSD(T) energy [au]:                   -23.372810050030
 
 Dominant cluster amplitudes
 Printing threshold:  1.00E-02
 
    1.000000  Reference determinant                                     

 ************************ 2024-10-29 00:42:53 *************************
 Executing goldstone...

 Generation of CC equations in terms of H and T...
 Generation of antisymmetrized Goldstone diagrams...
 Number of diagrams in T^1 equations:    15
 Number of diagrams in T^2 equations:    37
 Number of diagrams in T^3 equations:    47
 Translation of diagrams to factorized equations...
 Optimizing intermediate calculation...
 Number of floating-point operations per iteration step:   1.5253E+04
 Probable CPU time per iteration step (hours):      0.00
 Required memory (Mbytes):       0.4
 Number of intermediates:                                  67
 Number of intermediates to be stored:                     30
 Length of intermediate file (Mbytes):       0.0

 ************************ 2024-10-29 00:42:53 *************************
 Executing xmrcc...

 **********************************************************************
 CC(                     3 ) calculation 
 
 
 Allocation of 256.0 Mbytes of memory...
 Number of spinorbitals:                    18
 Number of alpha electrons:                        2
 Number of beta electrons:                         1
 Spin multiplicity:                     2
 z-component of spin:  0.5
 Spatial symmetry:                      1
 Convergence criterion:  1.0E-07
 Construction of occupation graphs...
 Number of                     0 -fold excitations:                      1
 Number of                     1 -fold excitations:                      4
 Number of                     2 -fold excitations:                     31
 Number of                     3 -fold excitations:                     18
 Total number of configurations:                     54
 Calculation of coupling coefficients...
 Length of intermediate file (Mbytes):       0.3
 
 ======================================================================
 
 Memory requirements /Mbyte/: 
               Minimal        Optimal
 Real*8:          0.0668         0.0668
 Integer:         3.3799
 Total:           3.4467         3.4467
 

 ************************ 2024-10-29 00:42:53 *************************
 Executing mrcc...

 **********************************************************************
 CCSDT calculation                                                      
 
 
 OpenMP parallel version is running.
 Number of CPU cores:  64
 Allocation of    0.1 Mbytes of memory...
 Number of spinorbitals:  18
 Number of alpha electrons:  2
 Number of beta  electrons:  1
 Spin multiplicity: 2
 z-component of spin:  0.5
 Spatial symmetry: 1
 Convergence criterion:  1.0E-07
 Construction of occupation graphs...
 Number of 0-fold excitations: 1
 Number of 1-fold excitations: 4
 Number of 2-fold excitations: 31
 Number of 3-fold excitations: 18
 Total number of determinants: 54
 Calculation of coupling coefficients...
 Initial cluster amplitudes are read from unit 16.
 Length of intermediate file (Mbytes):       0.3
 Reading integral list from unit 55...
 Sorting integrals...
 Sorting integrals...
 Sorting integrals...
 Sorting integrals...
 Energy of reference determinant [au]:     -23.371736889758
 Calculation of MP denominators...
 
 Starting CC iteration...
 ======================================================================
 Norm of residual vector:     0.00312413
 CPU time [min]:     0.505                   Wall time [min]:     0.010
 
 Iteration  1  CC energy:   -23.37280951  Energy decrease:   1.4566E-13
 ======================================================================
 Norm of residual vector:     0.00007939
 CPU time [min]:     0.603                   Wall time [min]:     0.011
 
 Iteration  2  CC energy:   -23.37281001  Energy decrease:   0.00000050
 ======================================================================
 Norm of residual vector:     0.00000720
 CPU time [min]:     0.769                   Wall time [min]:     0.014
 
 Iteration  3  CC energy:   -23.37281005  Energy decrease:   0.00000004
 ======================================================================
 Norm of residual vector:     0.00000104
 CPU time [min]:     0.920                   Wall time [min]:     0.017
 
 Iteration  4  CC energy:   -23.37281005  Energy decrease:   2.6403E-09
 ======================================================================
 Norm of residual vector:     0.00000012
 CPU time [min]:     1.132                   Wall time [min]:     0.021
 
 Iteration  5  CC energy:   -23.37281005  Energy decrease:   9.9169E-10
 ======================================================================
 Norm of residual vector:     0.00000001
 CPU time [min]:     1.319                   Wall time [min]:     0.024
 
 Iteration  6  CC energy:   -23.37281005  Energy decrease:   3.5779E-11
 ======================================================================
 
 Iteration has converged in  6 steps.
 
 Final results:
 Total CCSDT energy [au]:                     -23.372810049178
 
 Dominant cluster amplitudes
 Printing threshold:  1.00E-02
 
    1.000000  Reference determinant                                     
 
 ************************ 2024-10-29 00:42:54 *************************
                      Normal termination of mrcc.
 **********************************************************************
