#INFO: **** input file is /lustre09/project/6004934/jaafar1/PySCF-MRCC/Neon/Cation/AE/dawCV3Z/UHF/input.py ****
import pyscf
from pyscf import cc, lib, tools, scf, symm, ao2mo
from pyscf.gto.basis import parse_gaussian
from pyscf.scf import atom_hf

name = 'out'
mol = pyscf.M(
    atom = '''
        NE
    ''',
    unit = 'angstrom',
    basis = {
            'NE' : parse_gaussian.load('Ne-d-aug-cc-pwCVTZ.gbs', 'NE')
    },
    charge = +1,
    spin = 1,
    symmetry = True,
    verbose = 9,
    symmetry_subgroup = 'D2h',
    output = name +'.txt',
    max_memory = 8000,
)

original_AtomSphAverageRHF = atom_hf.AtomSphAverageRHF

class CustomAtomSphAverageRHF(original_AtomSphAverageRHF):
    def __init__(self, mol):
        super().__init__(mol)
        self.max_cycle = 9999
        self.direct_scf = False

atom_hf.AtomSphAverageRHF = CustomAtomSphAverageRHF

mf = mol.UHF().set(
    conv_tol=1e-15,
    max_cycle=9999,
    ddm_tol=1e-14,
    direct_scf=False,
    chkfile=name + '.chk',
    init_guess='atom',
    irrep_nelec={'Ag': 4, 'B3u': 2, 'B2u': 2, 'B1u': 1}
)

mf.kernel()

atom_hf.AtomSphAverageRHF = original_AtomSphAverageRHF

#pyscf.tools.fcidump.from_chkfile_uhf('FCIdump',name+'.chk',tol=1e-18, float_format='% 0.20E',molpro_orbsym=False,orbsym=None)
pyscf.tools.fcidump.from_scf_uhf(mf,'fort.55',tol=1e-18, float_format='% 0.20E',molpro_orbsym=False)
#MRCCInterface.run_mrcc(mf, fort_file='fort.55', mrcc_input_file='MINP', tol=1e-18, float_format='% 0.20E', molpro_orbsym=False)
#INFO: ******************** input file end ********************


System: uname_result(system='Linux', node='rc32328', release='5.14.0-687.5.4.el9_8.x86_64', version='#1 SMP PREEMPT_DYNAMIC Thu May 28 09:20:26 EDT 2026', machine='x86_64')  Threads 4
Python 3.13.2 (main, Feb  5 2025, 15:06:39) [GCC 13.3.0]
numpy 2.2.2  scipy 1.15.1  h5py 3.13.0
Date: Mon Jun  8 21:42:40 2026
PySCF version 2.10.0
PySCF path  /home/jaafar1/links/projects/rrg-tzeng/jaafar1/VENV/MRCCInterface/lib/python3.13/site-packages/pyscf

[CONFIG] ARGPARSE = False
[CONFIG] DEBUG = False
[CONFIG] MAX_MEMORY = 4000
[CONFIG] TMPDIR = /tmp
[CONFIG] UNIT = angstrom
[CONFIG] VERBOSE = 3
[CONFIG] conf_file = None
[INPUT] verbose = 9
[INPUT] max_memory = 8000 
[INPUT] num. atoms = 1
[INPUT] num. electrons = 9
[INPUT] charge = 1
[INPUT] spin (= nelec alpha-beta = 2S) = 1
[INPUT] symmetry True subgroup D2h
[INPUT] Mole.unit = angstrom
[INPUT] Symbol           X                Y                Z      unit          X                Y                Z       unit  Magmom
[INPUT]  1 Ne     0.000000000000   0.000000000000   0.000000000000 AA    0.000000000000   0.000000000000   0.000000000000 Bohr   0.0
[INPUT] ---------------- BASIS SET ---------------- 
[INPUT] l, kappa, [nprim/nctr], expnt,             c_1 c_2 ...
[INPUT] Ne
[INPUT] 0    0    [1    /1   ]  23.829               1
[INPUT] 0    0    [10   /2   ]  24350             0.000502 -0.000118
                                3650              0.003881 -0.000915
                                829.6             0.019997 -0.004737
                                234               0.078418 -0.019233
                                75.61             0.229676 -0.060369
                                26.73             0.432722 -0.142508
                                9.927             0.350642 -0.17771
                                2.836             0.043911 0.177352
                                1.102             -0.007645 0.605836
                                0.3782            0.002375 0.365109
[INPUT] 0    0    [1    /1   ]  9.883                1
[INPUT] 0    0    [1    /1   ]  2.836                1
[INPUT] 0    0    [1    /1   ]  0.3782               1
[INPUT] 0    0    [1    /1   ]  0.1133               1
[INPUT] 0    0    [1    /1   ]  0.0339               1
[INPUT] 1    0    [1    /1   ]  59.242               1
[INPUT] 1    0    [1    /1   ]  16.275               1
[INPUT] 1    0    [1    /1   ]  1.143                1
[INPUT] 1    0    [5    /1   ]  54.7              0.017151
                                12.43             0.107656
                                3.679             0.321681
                                1.143             0.485232
                                0.33              0.332584
[INPUT] 1    0    [1    /1   ]  0.33                 1
[INPUT] 1    0    [1    /1   ]  0.09175              1
[INPUT] 1    0    [1    /1   ]  0.0255               1
[INPUT] 2    0    [1    /1   ]  17.528               1
[INPUT] 2    0    [1    /1   ]  4.014                1
[INPUT] 2    0    [1    /1   ]  1.096                1
[INPUT] 2    0    [1    /1   ]  0.386                1
[INPUT] 2    0    [1    /1   ]  0.136                1
[INPUT] 3    0    [1    /1   ]  2.544                1
[INPUT] 3    0    [1    /1   ]  1.084                1
[INPUT] 3    0    [1    /1   ]  0.462                1

nuclear repulsion = 0
point group symmetry = SO3, use subgroup D2h
symmetry origin: [0. 0. 0.]
symmetry axis x: [1. 0. 0.]
symmetry axis y: [0. 1. 0.]
symmetry axis z: [0. 0. 1.]
num. orbitals of irrep Ag = 18
num. orbitals of irrep B1g = 5
num. orbitals of irrep B2g = 5
num. orbitals of irrep B3g = 5
num. orbitals of irrep Au = 3
num. orbitals of irrep B1u = 13
num. orbitals of irrep B2u = 13
num. orbitals of irrep B3u = 13
number of shells = 22
number of NR pGTOs = 95
number of NR cGTOs = 75
basis = {'NE': [[0, [23.829, 1.0]], [0, [24350.0, 0.000502, -0.000118], [3650.0, 0.003881, -0.000915], [829.6, 0.019997, -0.004737], [234.0, 0.078418, -0.019233], [75.61, 0.229676, -0.060369], [26.73, 0.432722, -0.142508], [9.927, 0.350642, -0.17771], [2.836, 0.043911, 0.177352], [1.102, -0.007645, 0.605836], [0.3782, 0.002375, 0.365109]], [0, [9.883, 1.0]], [0, [2.836, 1.0]], [0, [0.3782, 1.0]], [0, [0.1133, 1.0]], [0, [0.0339, 1.0]], [1, [59.242, 1.0]], [1, [16.275, 1.0]], [1, [1.143, 1.0]], [1, [54.7, 0.017151], [12.43, 0.107656], [3.679, 0.321681], [1.143, 0.485232], [0.33, 0.332584]], [1, [0.33, 1.0]], [1, [0.09175, 1.0]], [1, [0.0255, 1.0]], [2, [17.528, 1.0]], [2, [4.014, 1.0]], [2, [1.096, 1.0]], [2, [0.386, 1.0]], [2, [0.136, 1.0]], [3, [2.544, 1.0]], [3, [1.084, 1.0]], [3, [0.462, 1.0]]]}
ecp = {}
bas 0, expnt(s) = [23.829]
bas 1, expnt(s) = [2.435e+04 3.650e+03 8.296e+02 2.340e+02 7.561e+01 2.673e+01 9.927e+00
 2.836e+00 1.102e+00 3.782e-01]
bas 2, expnt(s) = [9.883]
bas 3, expnt(s) = [2.836]
bas 4, expnt(s) = [0.3782]
bas 5, expnt(s) = [0.1133]
bas 6, expnt(s) = [0.0339]
bas 7, expnt(s) = [59.242]
bas 8, expnt(s) = [16.275]
bas 9, expnt(s) = [1.143]
bas 10, expnt(s) = [54.7   12.43   3.679  1.143  0.33 ]
bas 11, expnt(s) = [0.33]
bas 12, expnt(s) = [0.09175]
bas 13, expnt(s) = [0.0255]
bas 14, expnt(s) = [17.528]
bas 15, expnt(s) = [4.014]
bas 16, expnt(s) = [1.096]
bas 17, expnt(s) = [0.386]
bas 18, expnt(s) = [0.136]
bas 19, expnt(s) = [2.544]
bas 20, expnt(s) = [1.084]
bas 21, expnt(s) = [0.462]
CPU time:         1.05
arg.atm = [[10 20  1 23  0  0]]
arg.bas = [[  0   0   1   1   0  24  25   0]
 [  0   0  10   2   0  26  36   0]
 [  0   0   1   1   0  56  57   0]
 [  0   0   1   1   0  58  59   0]
 [  0   0   1   1   0  60  61   0]
 [  0   0   1   1   0  62  63   0]
 [  0   0   1   1   0  64  65   0]
 [  0   1   1   1   0  66  67   0]
 [  0   1   1   1   0  68  69   0]
 [  0   1   1   1   0  70  71   0]
 [  0   1   5   1   0  72  77   0]
 [  0   1   1   1   0  82  83   0]
 [  0   1   1   1   0  84  85   0]
 [  0   1   1   1   0  86  87   0]
 [  0   2   1   1   0  88  89   0]
 [  0   2   1   1   0  90  91   0]
 [  0   2   1   1   0  92  93   0]
 [  0   2   1   1   0  94  95   0]
 [  0   2   1   1   0  96  97   0]
 [  0   3   1   1   0  98  99   0]
 [  0   3   1   1   0 100 101   0]
 [  0   3   1   1   0 102 103   0]]
arg.env = [ 0.00000000e+00  0.00000000e+00  0.00000000e+00  0.00000000e+00
  0.00000000e+00  0.00000000e+00  0.00000000e+00  0.00000000e+00
  0.00000000e+00  0.00000000e+00  0.00000000e+00  0.00000000e+00
  0.00000000e+00  0.00000000e+00  0.00000000e+00  0.00000000e+00
  0.00000000e+00  0.00000000e+00  0.00000000e+00  0.00000000e+00
  0.00000000e+00  0.00000000e+00  0.00000000e+00  0.00000000e+00
  2.38290000e+01  2.72486121e+01  2.43500000e+04  3.65000000e+03
  8.29600000e+02  2.34000000e+02  7.56100000e+01  2.67300000e+01
  9.92700000e+00  2.83600000e+00  1.10200000e+00  3.78200000e-01
  2.47225196e+00  4.60445338e+00  7.80964321e+00  1.18533865e+01
  1.48786947e+01  1.28520671e+01  4.95441338e+00  2.42447543e-01
 -2.07743993e-02  2.89380689e-03 -5.81127619e-01 -1.08556549e+00
 -1.84999361e+00 -2.90719531e+00 -3.91078279e+00 -4.23256610e+00
 -2.51096505e+00  9.79221737e-01  1.64629082e+00  4.44865746e-01
  9.88300000e+00  1.40825603e+01  2.83600000e+00  5.52134258e+00
  3.78200000e-01  1.21844567e+00  1.13300000e-01  4.93386721e-01
  3.39000000e-02  1.99601958e-01  5.92420000e+01  4.79481143e+02
  1.62750000e+01  9.53642591e+01  1.14300000e+00  3.44780091e+00
  5.47000000e+01  1.24300000e+01  3.67900000e+00  1.14300000e+00
  3.30000000e-01  7.44317023e+00  7.33012696e+00  4.78158622e+00
  1.67298316e+00  2.42676724e-01  3.30000000e-01  7.29670549e-01
  9.17500000e-02  1.47313309e-01  2.55000000e-02  2.97275842e-02
  1.75280000e+01  3.91796926e+02  4.01400000e+00  2.97022795e+01
  1.09600000e+00  3.06335872e+00  3.86000000e-01  4.93238728e-01
  1.36000000e-01  7.94735249e-02  2.54400000e+00  1.61221832e+01
  1.08400000e+00  2.36497333e+00  4.62000000e-01  3.47100154e-01]
ecpbas  = []


******** <class 'pyscf.scf.uhf_symm.SymAdaptedUHF'> ********
method = SymAdaptedUHF
initial guess = atom
damping factor = 0
level_shift factor = 0
DIIS = <class 'pyscf.scf.diis.CDIIS'>
diis_start_cycle = 1
diis_space = 8
diis_damp = 0
SCF conv_tol = 1e-15
SCF conv_tol_grad = None
SCF ddm_tol = 1e-14
SCF max_cycles = 9999
direct_scf = False
chkfile to save SCF result = out.chk
max_memory 8000 MB (current use 126 MB)
number electrons alpha = 5  beta = 4
irrep_nelec {'Ag': 4, 'B3u': 2, 'B2u': 2, 'B1u': 1}
Freeze 9 electrons in irreps ['Ag', 'B3u', 'B2u', 'B1u']
    0 free electrons in irreps B1g B2g B3g Au
cond(S) = 777.7527733482243

WARN: Singularity detected in overlap matrix (condition number =  778). SCF may be inaccurate and hard to converge.

Set gradient conv threshold to 3.16228e-08
Spherically averaged atomic HF for {'Ne'}


******** <class '__main__.CustomAtomSphAverageRHF'> ********
method = CustomAtomSphAverageRHF
initial guess = minao
damping factor = 0
level_shift factor = 0
DIIS = <class 'pyscf.scf.diis.CDIIS'>
diis_start_cycle = 1
diis_space = 8
diis_damp = 0
SCF conv_tol = 1e-09
SCF conv_tol_grad = None
SCF ddm_tol = 1e-10
SCF max_cycles = 9999
direct_scf = False
chkfile to save SCF result = /tmp/tmpwj_5k5x0
max_memory 8000 MB (current use 127 MB)
atom = Ne
Set gradient conv threshold to 3.16228e-05
Initial guess from minao.
Nelec from initial guess = 9.999189188261425
E1 = -183.59102548205482  E_coul = 55.07537167111016
init E= -128.515653810945
l = 0  e_0 = -32.5562298
l = 0  e_1 = -1.85297856
l = 0  e_2 = 0.0572859245
l = 0  e_3 = 0.373728359
l = 0  e_4 = 1.85186093
l = 0  e_5 = 7.95857656
l = 0  e_6 = 34.4615992
l = 0  e_7 = 165.282216
l = 1  e_0 = -0.774395756
l = 1  e_1 = 0.0611043073
l = 1  e_2 = 0.312750346
l = 1  e_3 = 1.43448767
l = 1  e_4 = 6.1417076
l = 1  e_5 = 29.7332638
l = 1  e_6 = 139.7189
l = 2  e_0 = 0.431424212
l = 2  e_1 = 1.43026397
l = 2  e_2 = 3.87704449
l = 2  e_3 = 12.0799931
l = 2  e_4 = 51.50391
l = 3  e_0 = 1.85122076
l = 3  e_1 = 5.25683569
l = 3  e_2 = 12.8537778
    CPU time for initialize scf      0.18 sec, wall time      0.05 sec
l = 0  e_0 = -32.5562298
l = 0  e_1 = -1.85297856
l = 0  e_2 = 0.0572859245
l = 0  e_3 = 0.373728359
l = 0  e_4 = 1.85186093
l = 0  e_5 = 7.95857656
l = 0  e_6 = 34.4615992
l = 0  e_7 = 165.282216
l = 1  e_0 = -0.774395756
l = 1  e_1 = 0.0611043073
l = 1  e_2 = 0.312750346
l = 1  e_3 = 1.43448767
l = 1  e_4 = 6.1417076
l = 1  e_5 = 29.7332638
l = 1  e_6 = 139.7189
l = 2  e_0 = 0.431424212
l = 2  e_1 = 1.43026397
l = 2  e_2 = 3.87704449
l = 2  e_3 = 12.0799931
l = 2  e_4 = 51.50391
l = 3  e_0 = 1.85122076
l = 3  e_1 = 5.25683569
l = 3  e_2 = 12.8537778
l = 0  occ = 2 + 0
l = 1  occ = 1 + 0
l = 2  occ = 0 + 0
l = 3  occ = 0 + 0
E1 = -182.01470445344  E_coul = 53.48512695630087
cycle= 1 E= -128.529577497139  delta_E= -0.0139  |g|=    0  |ddm|= 0.165
    CPU time for cycle= 1      0.02 sec, wall time      0.01 sec
diis-norm(errvec)=0.297778
diis-c [-0.08867192  1.        ]
l = 0  e_0 = -32.8895589
l = 0  e_1 = -1.97204567
l = 0  e_2 = 0.0561733043
l = 0  e_3 = 0.36366857
l = 0  e_4 = 1.8043009
l = 0  e_5 = 7.82344865
l = 0  e_6 = 34.208212
l = 0  e_7 = 164.943552
l = 1  e_0 = -0.887818654
l = 1  e_1 = 0.0609576453
l = 1  e_2 = 0.307574006
l = 1  e_3 = 1.39108676
l = 1  e_4 = 5.99910622
l = 1  e_5 = 29.4659307
l = 1  e_6 = 139.379796
l = 2  e_0 = 0.429411006
l = 2  e_1 = 1.40868065
l = 2  e_2 = 3.80702219
l = 2  e_3 = 11.9138516
l = 2  e_4 = 51.2192809
l = 3  e_0 = 1.84206587
l = 3  e_1 = 5.21238075
l = 3  e_2 = 12.7359928
l = 0  occ = 2 + 0
l = 1  occ = 1 + 0
l = 2  occ = 0 + 0
l = 3  occ = 0 + 0
E1 = -182.80741333494876  E_coul = 54.27510483531287
cycle= 2 E= -128.532308499636  delta_E= -0.00273  |g|=    0  |ddm|= 0.116
    CPU time for cycle= 2      0.02 sec, wall time      0.01 sec
diis-norm(errvec)=0.15235
diis-c [-4.63810485e-05  3.38293409e-01  6.61706591e-01]
l = 0  e_0 = -32.7776427
l = 0  e_1 = -1.93301927
l = 0  e_2 = 0.0565875983
l = 0  e_3 = 0.366921812
l = 0  e_4 = 1.81941345
l = 0  e_5 = 7.86760192
l = 0  e_6 = 34.2933554
l = 0  e_7 = 165.05557
l = 1  e_0 = -0.850796879
l = 1  e_1 = 0.0610491971
l = 1  e_2 = 0.309374205
l = 1  e_3 = 1.40510171
l = 1  e_4 = 6.04575765
l = 1  e_5 = 29.5555629
l = 1  e_6 = 139.492788
l = 2  e_0 = 0.430080741
l = 2  e_1 = 1.41521965
l = 2  e_2 = 3.82930246
l = 2  e_3 = 11.9683904
l = 2  e_4 = 51.3156792
l = 3  e_0 = 1.84480949
l = 3  e_1 = 5.22588389
l = 3  e_2 = 12.7736943
l = 0  occ = 2 + 0
l = 1  occ = 1 + 0
l = 2  occ = 0 + 0
l = 3  occ = 0 + 0
E1 = -182.53612070182086  E_coul = 54.00281290763727
cycle= 3 E= -128.533307794184  delta_E= -0.000999  |g|=    0  |ddm|= 0.0386
    CPU time for cycle= 3      0.02 sec, wall time      0.01 sec
diis-norm(errvec)=0.00082897
diis-c [-1.27840891e-07 -1.82240748e-02 -3.09831381e-02  1.04920721e+00]
l = 0  e_0 = -32.7781497
l = 0  e_1 = -1.93327903
l = 0  e_2 = 0.0565872167
l = 0  e_3 = 0.366905073
l = 0  e_4 = 1.81930615
l = 0  e_5 = 7.86732752
l = 0  e_6 = 34.2929416
l = 0  e_7 = 165.055023
l = 1  e_0 = -0.851100959
l = 1  e_1 = 0.0610494055
l = 1  e_2 = 0.309373388
l = 1  e_3 = 1.40502285
l = 1  e_4 = 6.04547724
l = 1  e_5 = 29.5551277
l = 1  e_6 = 139.492259
l = 2  e_0 = 0.430076453
l = 2  e_1 = 1.4151433
l = 2  e_2 = 3.82912277
l = 2  e_3 = 11.968047
l = 2  e_4 = 51.3152407
l = 3  e_0 = 1.84477968
l = 3  e_1 = 5.22573891
l = 3  e_2 = 12.7734026
l = 0  occ = 2 + 0
l = 1  occ = 1 + 0
l = 2  occ = 0 + 0
l = 3  occ = 0 + 0
E1 = -182.53670324825734  E_coul = 54.00339542870009
cycle= 4 E= -128.533307819557  delta_E= -2.54e-08  |g|=    0  |ddm|= 0.000297
    CPU time for cycle= 4      0.02 sec, wall time      0.01 sec
diis-norm(errvec)=8.77378e-05
diis-c [-5.88331596e-10  2.89964604e-04  8.00313556e-04 -7.34429060e-02
  1.07235263e+00]
l = 0  e_0 = -32.778205
l = 0  e_1 = -1.93330521
l = 0  e_2 = 0.05658687
l = 0  e_3 = 0.366901783
l = 0  e_4 = 1.81929125
l = 0  e_5 = 7.86729205
l = 0  e_6 = 34.2928906
l = 0  e_7 = 165.054968
l = 1  e_0 = -0.851130447
l = 1  e_1 = 0.061049302
l = 1  e_2 = 0.309371344
l = 1  e_3 = 1.40500784
l = 1  e_4 = 6.04543964
l = 1  e_5 = 29.5550757
l = 1  e_6 = 139.492204
l = 2  e_0 = 0.430075533
l = 2  e_1 = 1.41513431
l = 2  e_2 = 3.82909982
l = 2  e_3 = 11.9680029
l = 2  e_4 = 51.3151862
l = 3  e_0 = 1.84477535
l = 3  e_1 = 5.22572101
l = 3  e_2 = 12.7733657
l = 0  occ = 2 + 0
l = 1  occ = 1 + 0
l = 2  occ = 0 + 0
l = 3  occ = 0 + 0
E1 = -182.53684832080808  E_coul = 54.0035405008612
cycle= 5 E= -128.533307819947  delta_E= -3.9e-10  |g|=    0  |ddm|= 3.05e-05
    CPU time for cycle= 5      0.02 sec, wall time      0.01 sec
diis-norm(errvec)=8.15751e-06
diis-c [-9.17202552e-12  6.84209503e-05  3.46898866e-05  4.89697492e-03
 -1.33023372e-01  1.12802329e+00]
l = 0  e_0 = -32.7782007
l = 0  e_1 = -1.93330231
l = 0  e_2 = 0.0565869264
l = 0  e_3 = 0.366902143
l = 0  e_4 = 1.81929253
l = 0  e_5 = 7.86729473
l = 0  e_6 = 34.2928946
l = 0  e_7 = 165.054972
l = 1  e_0 = -0.851128624
l = 1  e_1 = 0.0610493083
l = 1  e_2 = 0.309371455
l = 1  e_3 = 1.40500868
l = 1  e_4 = 6.04544208
l = 1  e_5 = 29.5550797
l = 1  e_6 = 139.492208
l = 2  e_0 = 0.430075612
l = 2  e_1 = 1.41513489
l = 2  e_2 = 3.82910129
l = 2  e_3 = 11.9680059
l = 2  e_4 = 51.3151904
l = 3  e_0 = 1.84477565
l = 3  e_1 = 5.22572212
l = 3  e_2 = 12.7733681
l = 0  occ = 2 + 0
l = 1  occ = 1 + 0
l = 2  occ = 0 + 0
l = 3  occ = 0 + 0
E1 = -182.53683769294094  E_coul = 54.00352987299042
cycle= 6 E= -128.533307819951  delta_E= -3.64e-12  |g|=    0  |ddm|= 3.08e-06
    CPU time for cycle= 6      0.02 sec, wall time      0.01 sec
diis-norm(errvec)=4.47705e-07
diis-c [-2.46111469e-14 -6.71480345e-06 -5.55339955e-06 -1.26458312e-04
  4.29073435e-03 -1.30016650e-01  1.12586464e+00]
l = 0  e_0 = -32.7782007
l = 0  e_1 = -1.93330224
l = 0  e_2 = 0.05658693
l = 0  e_3 = 0.366902162
l = 0  e_4 = 1.81929257
l = 0  e_5 = 7.86729476
l = 0  e_6 = 34.2928946
l = 0  e_7 = 165.054972
l = 1  e_0 = -0.851128659
l = 1  e_1 = 0.0610493085
l = 1  e_2 = 0.309371458
l = 1  e_3 = 1.40500869
l = 1  e_4 = 6.04544207
l = 1  e_5 = 29.5550796
l = 1  e_6 = 139.492208
l = 2  e_0 = 0.430075617
l = 2  e_1 = 1.4151349
l = 2  e_2 = 3.82910129
l = 2  e_3 = 11.9680058
l = 2  e_4 = 51.3151904
l = 3  e_0 = 1.84477566
l = 3  e_1 = 5.22572214
l = 3  e_2 = 12.7733681
l = 0  occ = 2 + 0
l = 1  occ = 1 + 0
l = 2  occ = 0 + 0
l = 3  occ = 0 + 0
E1 = -182.53683789410738  E_coul = 54.00353007415682
cycle= 7 E= -128.533307819951  delta_E= -2.84e-14  |g|=    0  |ddm|= 3.88e-07
    CPU time for cycle= 7      0.02 sec, wall time      0.01 sec
diis-norm(errvec)=2.43918e-08
Linear dependence found in DIIS error vectors.
diis-c [-6.12612920e-15 -3.09025856e-06 -2.56637373e-06 -6.03112938e-05
  2.14563306e-03 -5.90337115e-02  4.93703949e-01  5.63250097e-01]
l = 0  e_0 = -32.7782007
l = 0  e_1 = -1.93330223
l = 0  e_2 = 0.0565869301
l = 0  e_3 = 0.366902163
l = 0  e_4 = 1.81929257
l = 0  e_5 = 7.86729477
l = 0  e_6 = 34.2928946
l = 0  e_7 = 165.054972
l = 1  e_0 = -0.851128656
l = 1  e_1 = 0.0610493085
l = 1  e_2 = 0.309371459
l = 1  e_3 = 1.40500869
l = 1  e_4 = 6.04544207
l = 1  e_5 = 29.5550796
l = 1  e_6 = 139.492208
l = 2  e_0 = 0.430075617
l = 2  e_1 = 1.4151349
l = 2  e_2 = 3.82910129
l = 2  e_3 = 11.9680058
l = 2  e_4 = 51.3151904
l = 3  e_0 = 1.84477566
l = 3  e_1 = 5.22572214
l = 3  e_2 = 12.7733681
l = 0  occ = 2 + 0
l = 1  occ = 1 + 0
l = 2  occ = 0 + 0
l = 3  occ = 0 + 0
E1 = -182.53683788999214  E_coul = 54.00353007004131
cycle= 8 E= -128.533307819951  delta_E= -2.84e-13  |g|=    0  |ddm|= 6.79e-09
    CPU time for cycle= 8      0.02 sec, wall time      0.01 sec
diis-norm(errvec)=1.26361e-08
Linear dependence found in DIIS error vectors.
diis-c [-1.14688537e-16  3.69148812e-07  2.68644755e-07  7.40479860e-06
 -8.23571142e-05  8.02680029e-03 -8.37796995e-02  5.20231311e-01
  5.55595902e-01]
l = 0  e_0 = -32.7782007
l = 0  e_1 = -1.93330223
l = 0  e_2 = 0.0565869302
l = 0  e_3 = 0.366902163
l = 0  e_4 = 1.81929257
l = 0  e_5 = 7.86729477
l = 0  e_6 = 34.2928946
l = 0  e_7 = 165.054972
l = 1  e_0 = -0.851128653
l = 1  e_1 = 0.0610493085
l = 1  e_2 = 0.309371459
l = 1  e_3 = 1.40500869
l = 1  e_4 = 6.04544207
l = 1  e_5 = 29.5550797
l = 1  e_6 = 139.492208
l = 2  e_0 = 0.430075618
l = 2  e_1 = 1.4151349
l = 2  e_2 = 3.8291013
l = 2  e_3 = 11.9680058
l = 2  e_4 = 51.3151904
l = 3  e_0 = 1.84477567
l = 3  e_1 = 5.22572214
l = 3  e_2 = 12.7733681
l = 0  occ = 2 + 0
l = 1  occ = 1 + 0
l = 2  occ = 0 + 0
l = 3  occ = 0 + 0
E1 = -182.536837885362  E_coul = 54.003530065411326
cycle= 9 E= -128.533307819951  delta_E= 1.71e-13  |g|=    0  |ddm|= 6.39e-09
    CPU time for cycle= 9      0.02 sec, wall time      0.01 sec
diis-norm(errvec)=1.38332e-09
Linear dependence found in DIIS error vectors.
diis-c [-4.43768876e-17  3.64341505e-01 -1.90769449e-07  8.35368715e-06
 -9.44116617e-07  3.87078819e-03 -4.51304083e-02  3.29498800e-01
  3.47412096e-01]
l = 0  e_0 = -32.7782007
l = 0  e_1 = -1.93330223
l = 0  e_2 = 0.0565869302
l = 0  e_3 = 0.366902163
l = 0  e_4 = 1.81929257
l = 0  e_5 = 7.86729477
l = 0  e_6 = 34.2928946
l = 0  e_7 = 165.054972
l = 1  e_0 = -0.851128653
l = 1  e_1 = 0.0610493085
l = 1  e_2 = 0.309371459
l = 1  e_3 = 1.40500869
l = 1  e_4 = 6.04544207
l = 1  e_5 = 29.5550797
l = 1  e_6 = 139.492208
l = 2  e_0 = 0.430075618
l = 2  e_1 = 1.4151349
l = 2  e_2 = 3.8291013
l = 2  e_3 = 11.9680058
l = 2  e_4 = 51.3151904
l = 3  e_0 = 1.84477567
l = 3  e_1 = 5.22572214
l = 3  e_2 = 12.7733681
l = 0  occ = 2 + 0
l = 1  occ = 1 + 0
l = 2  occ = 0 + 0
l = 3  occ = 0 + 0
E1 = -182.5368378844349  E_coul = 54.00353006448452
cycle= 10 E= -128.53330781995  delta_E= 2.84e-13  |g|=    0  |ddm|= 2.35e-10
    CPU time for cycle= 10      0.02 sec, wall time      0.01 sec
diis-norm(errvec)=8.38586e-10
Linear dependence found in DIIS error vectors.
diis-c [-1.31815489e-17  2.60311005e-01  2.60365927e-01 -3.07480967e-06
  1.63736516e-04  7.73252447e-04 -2.00717575e-02  2.45345866e-01
  2.53115046e-01]
l = 0  e_0 = -32.7782007
l = 0  e_1 = -1.93330223
l = 0  e_2 = 0.0565869302
l = 0  e_3 = 0.366902163
l = 0  e_4 = 1.81929257
l = 0  e_5 = 7.86729477
l = 0  e_6 = 34.2928946
l = 0  e_7 = 165.054972
l = 1  e_0 = -0.851128653
l = 1  e_1 = 0.0610493085
l = 1  e_2 = 0.309371459
l = 1  e_3 = 1.40500869
l = 1  e_4 = 6.04544207
l = 1  e_5 = 29.5550797
l = 1  e_6 = 139.492208
l = 2  e_0 = 0.430075618
l = 2  e_1 = 1.4151349
l = 2  e_2 = 3.8291013
l = 2  e_3 = 11.9680058
l = 2  e_4 = 51.3151904
l = 3  e_0 = 1.84477567
l = 3  e_1 = 5.22572214
l = 3  e_2 = 12.7733681
l = 0  occ = 2 + 0
l = 1  occ = 1 + 0
l = 2  occ = 0 + 0
l = 3  occ = 0 + 0
E1 = -182.53683788492967  E_coul = 54.00353006497907
cycle= 11 E= -128.533307819951  delta_E= -2.27e-13  |g|=    0  |ddm|= 5.92e-11
    CPU time for cycle= 11      0.03 sec, wall time      0.01 sec
l = 0  e_0 = -32.7782007
l = 0  e_1 = -1.93330223
l = 0  e_2 = 0.0565869302
l = 0  e_3 = 0.366902163
l = 0  e_4 = 1.81929257
l = 0  e_5 = 7.86729477
l = 0  e_6 = 34.2928946
l = 0  e_7 = 165.054972
l = 1  e_0 = -0.851128652
l = 1  e_1 = 0.0610493085
l = 1  e_2 = 0.309371459
l = 1  e_3 = 1.40500869
l = 1  e_4 = 6.04544207
l = 1  e_5 = 29.5550797
l = 1  e_6 = 139.492208
l = 2  e_0 = 0.430075618
l = 2  e_1 = 1.4151349
l = 2  e_2 = 3.8291013
l = 2  e_3 = 11.9680058
l = 2  e_4 = 51.3151904
l = 3  e_0 = 1.84477567
l = 3  e_1 = 5.22572214
l = 3  e_2 = 12.7733681
l = 0  occ = 2 + 0
l = 1  occ = 1 + 0
l = 2  occ = 0 + 0
l = 3  occ = 0 + 0
E1 = -182.536837883699  E_coul = 54.00353006374856
Extra cycle  E= -128.53330781995  delta_E= 1.71e-13  |g|=    0  |ddm|= 5.92e-11
    CPU time for scf_cycle      0.45 sec, wall time      0.12 sec
    CPU time for SCF      0.45 sec, wall time      0.12 sec
Atomic HF for atom  Ne  converged. SCF energy = -128.53330781995

Atom Ne, E = -128.53330782
Nelec from initial guess = (np.float64(4.999999999999997), np.float64(4.999999999999997))
E1 = -182.536837883699  Ecoul = 54.00353006374855
init E= -128.53330781995
    CPU time for initialize scf      0.62 sec, wall time      0.17 sec
alpha HOMO (B3u) = -0.851128652511049  LUMO (Ag) = 0.056586930212564
alpha irrep_nelec = [2, 0, 0, 0, 0, 1, 1, 1]
beta  irrep_nelec = [2, 0, 0, 0, 0, 0, 1, 1]
alpha-Ag nocc = 2  HOMO = -1.93330222960258  LUMO = 0.056586930212564
   mo_energy = [-3.27782007e+01 -1.93330223e+00  5.65869302e-02  3.66902163e-01
  4.30075618e-01  4.30075618e-01  1.41513490e+00  1.41513490e+00
  1.81929257e+00  3.82910130e+00  3.82910130e+00  7.86729477e+00
  1.19680058e+01  1.19680058e+01  3.42928946e+01  5.13151904e+01
  5.13151904e+01  1.65054972e+02]
alpha-B1g nocc = 0
   mo_energy = [ 0.43007562  1.4151349   3.8291013  11.96800584 51.3151904 ]
alpha-B2g nocc = 0
   mo_energy = [ 0.43007562  1.4151349   3.8291013  11.96800584 51.3151904 ]
alpha-B3g nocc = 0
   mo_energy = [ 0.43007562  1.4151349   3.8291013  11.96800584 51.3151904 ]
alpha-Au nocc = 0
   mo_energy = [ 1.84477567  5.22572214 12.77336811]
alpha-B1u nocc = 1  HOMO = -0.851128652511056  LUMO = 0.0610493084901983
   mo_energy = [-8.51128653e-01  6.10493085e-02  3.09371459e-01  1.40500869e+00
  1.84477567e+00  1.84477567e+00  5.22572214e+00  5.22572214e+00
  6.04544207e+00  1.27733681e+01  1.27733681e+01  2.95550797e+01
  1.39492208e+02]
alpha-B2u nocc = 1  HOMO = -0.851128652511053  LUMO = 0.0610493084901991
   mo_energy = [-8.51128653e-01  6.10493085e-02  3.09371459e-01  1.40500869e+00
  1.84477567e+00  1.84477567e+00  5.22572214e+00  5.22572214e+00
  6.04544207e+00  1.27733681e+01  1.27733681e+01  2.95550797e+01
  1.39492208e+02]
alpha-B3u nocc = 1  HOMO = -0.851128652511049  LUMO = 0.0610493084901981
   mo_energy = [-8.51128653e-01  6.10493085e-02  3.09371459e-01  1.40500869e+00
  1.84477567e+00  1.84477567e+00  5.22572214e+00  5.22572214e+00
  6.04544207e+00  1.27733681e+01  1.27733681e+01  2.95550797e+01
  1.39492208e+02]
beta-Ag nocc = 2  HOMO = -1.93330222960258  LUMO = 0.056586930212564
   mo_energy = [-3.27782007e+01 -1.93330223e+00  5.65869302e-02  3.66902163e-01
  4.30075618e-01  4.30075618e-01  1.41513490e+00  1.41513490e+00
  1.81929257e+00  3.82910130e+00  3.82910130e+00  7.86729477e+00
  1.19680058e+01  1.19680058e+01  3.42928946e+01  5.13151904e+01
  5.13151904e+01  1.65054972e+02]
beta-B1g nocc = 0
   mo_energy = [ 0.43007562  1.4151349   3.8291013  11.96800584 51.3151904 ]
beta-B2g nocc = 0
   mo_energy = [ 0.43007562  1.4151349   3.8291013  11.96800584 51.3151904 ]
beta-B3g nocc = 0
   mo_energy = [ 0.43007562  1.4151349   3.8291013  11.96800584 51.3151904 ]
beta-Au nocc = 0
   mo_energy = [ 1.84477567  5.22572214 12.77336811]
beta-B1u nocc = 0
   mo_energy = [-8.51128653e-01  6.10493085e-02  3.09371459e-01  1.40500869e+00
  1.84477567e+00  1.84477567e+00  5.22572214e+00  5.22572214e+00
  6.04544207e+00  1.27733681e+01  1.27733681e+01  2.95550797e+01
  1.39492208e+02]
beta-B2u nocc = 1  HOMO = -0.851128652511053  LUMO = 0.0610493084901991
   mo_energy = [-8.51128653e-01  6.10493085e-02  3.09371459e-01  1.40500869e+00
  1.84477567e+00  1.84477567e+00  5.22572214e+00  5.22572214e+00
  6.04544207e+00  1.27733681e+01  1.27733681e+01  2.95550797e+01
  1.39492208e+02]
beta-B3u nocc = 1  HOMO = -0.851128652511049  LUMO = 0.0610493084901981
   mo_energy = [-8.51128653e-01  6.10493085e-02  3.09371459e-01  1.40500869e+00
  1.84477567e+00  1.84477567e+00  5.22572214e+00  5.22572214e+00
  6.04544207e+00  1.27733681e+01  1.27733681e+01  2.95550797e+01
  1.39492208e+02]
multiplicity <S^2> = 0.75  2S+1 = 2
E1 = -172.45516023359394  Ecoul = 44.77298106609176
cycle= 1 E= -127.682179167502  delta_E= 0.851  |g|= 0.688  |ddm|= 0.994
    CPU time for cycle= 1      0.07 sec, wall time      0.02 sec
diis-norm(errvec)=0.973594
diis-c [-0.94788532  1.        ]
alpha HOMO (B2u) = -1.81061311241613  LUMO (Ag) = -0.18453092063214
alpha irrep_nelec = [2, 0, 0, 0, 0, 1, 1, 1]
beta  irrep_nelec = [2, 0, 0, 0, 0, 0, 1, 1]
alpha-Ag nocc = 2  HOMO = -2.93793564014925  LUMO = -0.18453092063214
   mo_energy = [-3.41942685e+01 -2.93793564e+00 -1.84530921e-01  3.81328304e-02
  1.29526141e-01  1.38858732e-01  8.96521346e-01  9.32139530e-01
  1.21612910e+00  3.03122841e+00  3.10593036e+00  6.90803735e+00
  1.08332019e+01  1.09451773e+01  3.30369950e+01  4.99351136e+01
  5.00291207e+01  1.63670600e+02]
alpha-B1g nocc = 0
   mo_energy = [ 0.13885873  0.93213953  3.10593036 10.94517726 50.02912066]
alpha-B2g nocc = 0
   mo_energy = [ 0.13155755  0.90587444  3.04949378 10.86042048 49.95841844]
alpha-B3g nocc = 0
   mo_energy = [ 0.13155755  0.90587444  3.04949378 10.86042048 49.95841844]
alpha-Au nocc = 0
   mo_energy = [ 1.39513232  4.54973438 11.83379462]
alpha-B1u nocc = 1  HOMO = -1.91984525656498  LUMO = -0.113648334595128
   mo_energy = [-1.91984526e+00 -1.13648335e-01  2.22353540e-02  8.02339039e-01
  1.38391394e+00  1.39513232e+00  4.51927830e+00  4.54973438e+00
  5.01088248e+00  1.17858943e+01  1.18337946e+01  2.82081784e+01
  1.38060433e+02]
alpha-B2u nocc = 1  HOMO = -1.81061311241613  LUMO = -0.108839454626483
   mo_energy = [-1.81061311e+00 -1.08839455e-01  3.16073891e-02  8.43715593e-01
  1.38670313e+00  1.40961123e+00  4.52719570e+00  4.58583072e+00
  5.10115955e+00  1.17978468e+01  1.18940309e+01  2.82995003e+01
  1.38111662e+02]
alpha-B3u nocc = 1  HOMO = -1.81061311241614  LUMO = -0.10883945462648
   mo_energy = [-1.81061311e+00 -1.08839455e-01  3.16073891e-02  8.43715593e-01
  1.38670313e+00  1.40961123e+00  4.52719570e+00  4.58583072e+00
  5.10115955e+00  1.17978468e+01  1.18940309e+01  2.82995003e+01
  1.38111662e+02]
beta-Ag nocc = 2  HOMO = -2.73516330879111  LUMO = -0.179213072424655
   mo_energy = [-3.41459146e+01 -2.73516331e+00 -1.79213072e-01  4.65200673e-02
  1.36044147e-01  1.39554701e-01  9.37228570e-01  9.43902113e-01
  1.24637591e+00  3.11905247e+00  3.14248916e+00  6.95848388e+00
  1.09627055e+01  1.09672797e+01  3.30721759e+01  5.00056082e+01
  5.00392951e+01  1.63681602e+02]
beta-B1g nocc = 0
   mo_energy = [ 0.1395547   0.93722857  3.11905247 10.96270546 50.03929507]
beta-B2g nocc = 0
   mo_energy = [ 0.13681331  0.94206865  3.13604628 10.96587463 50.01398176]
beta-B3g nocc = 0
   mo_energy = [ 0.13681331  0.94206865  3.13604628 10.96587463 50.01398176]
beta-Au nocc = 0
   mo_energy = [ 1.40176257  4.57351947 11.87602578]
beta-B1u nocc = 0
   mo_energy = [-8.51128652e-01 -1.06526012e-01  4.12212405e-02  8.99038530e-01
  1.39462629e+00  1.40176257e+00  4.55948886e+00  4.57351947e+00
  5.17077491e+00  1.18546569e+01  1.18760258e+01  2.83073725e+01
  1.38088908e+02]
beta-B2u nocc = 1  HOMO = -1.75611813894512  LUMO = -0.108176428229952
   mo_energy = [-1.75611814e+00 -1.08176428e-01  3.35085737e-02  8.55043830e-01
  1.39638404e+00  1.41088705e+00  4.56300724e+00  4.59065475e+00
  5.12383737e+00  1.18599981e+01  1.19027525e+01  2.83169280e+01
  1.38117763e+02]
beta-B3u nocc = 1  HOMO = -1.75611813894511  LUMO = -0.108176428229954
   mo_energy = [-1.75611814e+00 -1.08176428e-01  3.35085737e-02  8.55043830e-01
  1.39638404e+00  1.41088705e+00  4.56300724e+00  4.59065475e+00
  5.12383737e+00  1.18599981e+01  1.19027525e+01  2.83169280e+01
  1.38117763e+02]
multiplicity <S^2> = 0.75118679  2S+1 = 2.0011864
E1 = -175.7827680131872  Ecoul = 47.98424781161481
cycle= 2 E= -127.798520201572  delta_E= -0.116  |g|= 0.286  |ddm|= 0.302
    CPU time for cycle= 2      0.06 sec, wall time      0.02 sec
diis-norm(errvec)=0.404519
diis-c [-0.04332709  0.2672357   0.7327643 ]
alpha HOMO (B2u) = -1.62179987597323  LUMO (Ag) = -0.175939924104192
alpha irrep_nelec = [2, 0, 0, 0, 0, 1, 1, 1]
beta  irrep_nelec = [2, 0, 0, 0, 0, 0, 1, 1]
alpha-Ag nocc = 2  HOMO = -2.75011822129012  LUMO = -0.175939924104192
   mo_energy = [-3.36698119e+01 -2.75011822e+00 -1.75939924e-01  5.21746956e-02
  1.35785658e-01  1.43612527e-01  9.35547589e-01  9.68061764e-01
  1.28243859e+00  3.13598434e+00  3.21329478e+00  7.11322720e+00
  1.10853724e+01  1.12064049e+01  3.34391917e+01  5.03852793e+01
  5.04888001e+01  1.64196765e+02]
alpha-B1g nocc = 0
   mo_energy = [ 0.14361253  0.96806176  3.21329478 11.20640487 50.48880013]
alpha-B2g nocc = 0
   mo_energy = [ 0.13750897  0.94389166  3.15470548 11.11466589 50.41092126]
alpha-B3g nocc = 0
   mo_energy = [ 0.13750897  0.94389166  3.15470548 11.11466589 50.41092126]
alpha-Au nocc = 0
   mo_energy = [ 1.41027306  4.61787616 12.01540395]
alpha-B1u nocc = 1  HOMO = -1.74500731631731  LUMO = -0.110220208653953
   mo_energy = [-1.74500732e+00 -1.10220209e-01  3.08429353e-02  8.58861310e-01
  1.40034156e+00  1.41027306e+00  4.58879373e+00  4.61787616e+00
  5.21882116e+00  1.19655966e+01  1.20154039e+01  2.86240536e+01
  1.38587686e+02]
alpha-B2u nocc = 1  HOMO = -1.62179987597323  LUMO = -0.106287131648615
   mo_energy = [-1.62179988e+00 -1.06287132e-01  3.95746832e-02  9.01654158e-01
  1.40281049e+00  1.42308528e+00  4.59626906e+00  4.65287328e+00
  5.31662224e+00  1.19780209e+01  1.20781067e+01  2.87243803e+01
  1.38644439e+02]
alpha-B3u nocc = 1  HOMO = -1.62179987597324  LUMO = -0.106287131648613
   mo_energy = [-1.62179988e+00 -1.06287132e-01  3.95746832e-02  9.01654158e-01
  1.40281049e+00  1.42308528e+00  4.59626906e+00  4.65287328e+00
  5.31662224e+00  1.19780209e+01  1.20781067e+01  2.87243803e+01
  1.38644439e+02]
beta-Ag nocc = 2  HOMO = -2.53547607925289  LUMO = -0.172245493133847
   mo_energy = [-3.36132907e+01 -2.53547608e+00 -1.72245493e-01  5.94068258e-02
  1.40086701e-01  1.43836387e-01  9.70678224e-01  9.74764579e-01
  1.31450449e+00  3.22441721e+00  3.25386315e+00  7.17115886e+00
  1.12255535e+01  1.12413249e+01  3.34802752e+01  5.04683559e+01
  5.05007654e+01  1.64209455e+02]
beta-B1g nocc = 0
   mo_energy = [ 0.14383639  0.97067822  3.22441721 11.22555347 50.50076545]
beta-B2g nocc = 0
   mo_energy = [ 0.14085794  0.97364483  3.24571656 11.23700496 50.4764075 ]
beta-B3g nocc = 0
   mo_energy = [ 0.14085794  0.97364483  3.24571656 11.23700496 50.4764075 ]
beta-Au nocc = 0
   mo_energy = [ 1.41478606  4.6397083  12.06141043]
beta-B1u nocc = 0
   mo_energy = [-6.45060385e-01 -1.01827581e-01  5.61823516e-02  9.83377348e-01
  1.40803054e+00  1.41478606e+00  4.62666143e+00  4.63970830e+00
  5.41249145e+00  1.20417806e+01  1.20614104e+01  2.87413121e+01
  1.38621202e+02]
beta-B2u nocc = 1  HOMO = -1.56689711627308  LUMO = -0.105774028319813
   mo_energy = [-1.56689712e+00 -1.05774028e-01  4.12469101e-02  9.12954441e-01
  1.40968085e+00  1.42345858e+00  4.62993290e+00  4.65570426e+00
  5.34151263e+00  1.20466875e+01  1.20859559e+01  2.87443733e+01
  1.38651480e+02]
beta-B3u nocc = 1  HOMO = -1.56689711627308  LUMO = -0.10577402831981
   mo_energy = [-1.56689712e+00 -1.05774028e-01  4.12469101e-02  9.12954441e-01
  1.40968085e+00  1.42345858e+00  4.62993290e+00  4.65570426e+00
  5.34151263e+00  1.20466875e+01  1.20859559e+01  2.87443733e+01
  1.38651480e+02]
multiplicity <S^2> = 0.75186407  2S+1 = 2.0018632
E1 = -175.11596847335778  Ecoul = 47.30624787672552
cycle= 3 E= -127.809720596632  delta_E= -0.0112  |g|= 0.0293  |ddm|= 0.0923
    CPU time for cycle= 3      0.07 sec, wall time      0.02 sec
diis-norm(errvec)=0.0414313
diis-c [-6.94529451e-04 -2.93525769e-02 -1.29833594e-01  1.15918617e+00]
alpha HOMO (B2u) = -1.60450486410848  LUMO (Ag) = -0.174273395533833
alpha irrep_nelec = [2, 0, 0, 0, 0, 1, 1, 1]
beta  irrep_nelec = [2, 0, 0, 0, 0, 0, 1, 1]
alpha-Ag nocc = 2  HOMO = -2.73430142846988  LUMO = -0.174273395533833
   mo_energy = [-3.36439524e+01 -2.73430143e+00 -1.74273396e-01  5.48070634e-02
  1.37335621e-01  1.44927884e-01  9.42915964e-01  9.75167605e-01
  1.29172197e+00  3.14863979e+00  3.22795916e+00  7.13374386e+00
  1.11088286e+01  1.12317699e+01  3.34665697e+01  5.04141898e+01
  5.05171759e+01  1.64220799e+02]
alpha-B1g nocc = 0
   mo_energy = [ 0.14492788  0.97516761  3.22795916 11.23176989 50.51717594]
alpha-B2g nocc = 0
   mo_energy = [ 0.13900913  0.9511062   3.16772497 11.13851857 50.43968513]
alpha-B3g nocc = 0
   mo_energy = [ 0.13900913  0.9511062   3.16772497 11.13851857 50.43968513]
alpha-Au nocc = 0
   mo_energy = [ 1.41413012  4.63006803 12.03748549]
alpha-B1u nocc = 1  HOMO = -1.73740537977095  LUMO = -0.109719185058264
   mo_energy = [-1.73740538e+00 -1.09719185e-01  3.21253115e-02  8.65662583e-01
  1.40433164e+00  1.41413012e+00  4.60077246e+00  4.63006803e+00
  5.23728731e+00  1.19872013e+01  1.20374855e+01  2.86507057e+01
  1.38613242e+02]
alpha-B2u nocc = 1  HOMO = -1.60450486410848  LUMO = -0.105858927683541
   mo_energy = [-1.60450486e+00 -1.05858928e-01  4.09134214e-02  9.09858631e-01
  1.40676623e+00  1.42679393e+00  4.60830035e+00  4.66539309e+00
  5.33774625e+00  1.19997385e+01  1.21008854e+01  2.87515314e+01
  1.38669329e+02]
alpha-B3u nocc = 1  HOMO = -1.60450486410848  LUMO = -0.105858927683546
   mo_energy = [-1.60450486e+00 -1.05858928e-01  4.09134214e-02  9.09858631e-01
  1.40676623e+00  1.42679393e+00  4.60830035e+00  4.66539309e+00
  5.33774625e+00  1.19997385e+01  1.21008854e+01  2.87515314e+01
  1.38669329e+02]
beta-Ag nocc = 2  HOMO = -2.51113524310968  LUMO = -0.171006697927568
   mo_energy = [-3.35852358e+01 -2.51113524e+00 -1.71006698e-01  6.16595169e-02
  1.40913908e-01  1.44811724e-01  9.75897489e-01  9.80283826e-01
  1.32492647e+00  3.23778811e+00  3.27069646e+00  7.19516785e+00
  1.12526026e+01  1.12714038e+01  3.35099529e+01  5.04996061e+01
  5.05303735e+01  1.64234316e+02]
beta-B1g nocc = 0
   mo_energy = [ 0.14481172  0.97589749  3.23778811 11.25260259 50.53037347]
beta-B2g nocc = 0
   mo_energy = [ 0.14169789  0.97908406  3.26165792 11.26635845 50.5072495 ]
beta-B3g nocc = 0
   mo_energy = [ 0.14169789  0.97908406  3.26165792 11.26635845 50.5072495 ]
beta-Au nocc = 0
   mo_energy = [ 1.41771535  4.65137102 12.08535112]
beta-B1u nocc = 0
   mo_energy = [-6.20171993e-01 -1.01183853e-01  5.83495627e-02  9.94352699e-01
  1.41093192e+00  1.41771535e+00  4.63885142e+00  4.65137102e+00
  5.43660575e+00  1.20668648e+01  1.20853511e+01  2.87714673e+01
  1.38647835e+02]
beta-B2u nocc = 1  HOMO = -1.54769967439159  LUMO = -0.105376060266302
   mo_energy = [-1.54769967e+00 -1.05376060e-01  4.25339338e-02  9.21387728e-01
  1.41258598e+00  1.42642468e+00  4.64199557e+00  4.66668561e+00
  5.36400694e+00  1.20714907e+01  1.21083959e+01  2.87730416e+01
  1.38677051e+02]
beta-B3u nocc = 1  HOMO = -1.54769967439159  LUMO = -0.105376060266308
   mo_energy = [-1.54769967e+00 -1.05376060e-01  4.25339338e-02  9.21387728e-01
  1.41258598e+00  1.42642468e+00  4.64199557e+00  4.66668561e+00
  5.36400694e+00  1.20714907e+01  1.21083959e+01  2.87730416e+01
  1.38677051e+02]
multiplicity <S^2> = 0.75244284  2S+1 = 2.0024414
E1 = -175.08903081411825  Ecoul = 47.27907788987901
cycle= 4 E= -127.809952924239  delta_E= -0.000232  |g|= 0.00544  |ddm|= 0.0134
    CPU time for cycle= 4      0.07 sec, wall time      0.02 sec
diis-norm(errvec)=0.00769358
diis-c [-2.89701329e-05  1.21593585e-03  2.20533235e-02 -2.43158873e-01
  1.21988961e+00]
alpha HOMO (B2u) = -1.60572805734437  LUMO (Ag) = -0.174276994036551
alpha irrep_nelec = [2, 0, 0, 0, 0, 1, 1, 1]
beta  irrep_nelec = [2, 0, 0, 0, 0, 0, 1, 1]
alpha-Ag nocc = 2  HOMO = -2.73591184813861  LUMO = -0.174276994036551
   mo_energy = [-3.36462226e+01 -2.73591185e+00 -1.74276994e-01  5.47759897e-02
  1.37373354e-01  1.45003436e-01  9.43035986e-01  9.75350952e-01
  1.29132195e+00  3.14793747e+00  3.22760237e+00  7.13238925e+00
  1.11069339e+01  1.12300248e+01  3.34646479e+01  5.04123157e+01
  5.05149668e+01  1.64219264e+02]
alpha-B1g nocc = 0
   mo_energy = [ 0.14500344  0.97535095  3.22760237 11.23002485 50.51496676]
alpha-B2g nocc = 0
   mo_energy = [ 0.13905242  0.95122112  3.16707575 11.13663649 50.43771945]
alpha-B3g nocc = 0
   mo_energy = [ 0.13905242  0.95122112  3.16707575 11.13663649 50.43771945]
alpha-Au nocc = 0
   mo_energy = [ 1.41420979  4.62992939 12.03642119]
alpha-B1u nocc = 1  HOMO = -1.74035705415481  LUMO = -0.10978989936418
   mo_energy = [-1.74035705e+00 -1.09789899e-01  3.19608634e-02  8.64835927e-01
  1.40436119e+00  1.41420979e+00  4.60053922e+00  4.62992939e+00
  5.23548252e+00  1.19861226e+01  1.20364212e+01  2.86488538e+01
  1.38611821e+02]
alpha-B2u nocc = 1  HOMO = -1.60572805734437  LUMO = -0.105875697403825
   mo_energy = [-1.60572806e+00 -1.05875697e-01  4.08586571e-02  9.09483642e-01
  1.40680760e+00  1.42695422e+00  4.60808975e+00  4.66540337e+00
  5.33644611e+00  1.19986599e+01  1.20998953e+01  2.87495735e+01
  1.38667652e+02]
alpha-B3u nocc = 1  HOMO = -1.60572805734438  LUMO = -0.105875697403823
   mo_energy = [-1.60572806e+00 -1.05875697e-01  4.08586571e-02  9.09483642e-01
  1.40680760e+00  1.42695422e+00  4.60808975e+00  4.66540337e+00
  5.33644611e+00  1.19986599e+01  1.20998953e+01  2.87495735e+01
  1.38667652e+02]
beta-Ag nocc = 2  HOMO = -2.51050490583249  LUMO = -0.171019334321952
   mo_energy = [-3.35860021e+01 -2.51050491e+00 -1.71019334e-01  6.16275434e-02
  1.40847151e-01  1.44781701e-01  9.75456052e-01  9.79944830e-01
  1.32489459e+00  3.23722941e+00  3.27033008e+00  7.19492644e+00
  1.12520028e+01  1.12710029e+01  3.35090277e+01  5.04985822e+01
  5.05289341e+01  1.64233341e+02]
beta-B1g nocc = 0
   mo_energy = [ 0.1447817   0.97545605  3.23722941 11.25200277 50.52893413]
beta-B2g nocc = 0
   mo_energy = [ 0.14164049  0.97874997  3.2613302  11.26594877 50.50612102]
beta-B3g nocc = 0
   mo_energy = [ 0.14164049  0.97874997  3.2613302  11.26594877 50.50612102]
beta-Au nocc = 0
   mo_energy = [ 1.41757931  4.65096644 12.08472816]
beta-B1u nocc = 0
   mo_energy = [-6.20166400e-01 -1.01194720e-01  5.83267107e-02  9.94208143e-01
  1.41075028e+00  1.41757931e+00  4.63845053e+00  4.65096644e+00
  5.43613612e+00  1.20663520e+01  1.20847282e+01  2.87706979e+01
  1.38646930e+02]
beta-B2u nocc = 1  HOMO = -1.5473107518659  LUMO = -0.105372237605706
   mo_energy = [-1.54731075e+00 -1.05372238e-01  4.25405494e-02  9.21387834e-01
  1.41241583e+00  1.42634072e+00  4.64159707e+00  4.66623540e+00
  5.36361484e+00  1.20709533e+01  1.21075907e+01  2.87719651e+01
  1.38675854e+02]
beta-B3u nocc = 1  HOMO = -1.54731075186591  LUMO = -0.105372237605704
   mo_energy = [-1.54731075e+00 -1.05372238e-01  4.25405494e-02  9.21387834e-01
  1.41241583e+00  1.42634072e+00  4.64159707e+00  4.66623540e+00
  5.36361484e+00  1.20709533e+01  1.21075907e+01  2.87719651e+01
  1.38675854e+02]
multiplicity <S^2> = 0.75261391  2S+1 = 2.0026122
E1 = -175.09385000793878  Ecoul = 47.28388351549464
cycle= 5 E= -127.809966492444  delta_E= -1.36e-05  |g|= 0.00139  |ddm|= 0.00394
    CPU time for cycle= 5      0.06 sec, wall time      0.02 sec
diis-norm(errvec)=0.00197221
diis-c [-6.94234136e-07  4.26532201e-04 -4.40575171e-03  5.85386822e-02
 -5.08168621e-01  1.45360916e+00]
alpha HOMO (B3u) = -1.60624789946031  LUMO (Ag) = -0.174284600675
alpha irrep_nelec = [2, 0, 0, 0, 0, 1, 1, 1]
beta  irrep_nelec = [2, 0, 0, 0, 0, 0, 1, 1]
alpha-Ag nocc = 2  HOMO = -2.73639407383631  LUMO = -0.174284600675
   mo_energy = [-3.36466456e+01 -2.73639407e+00 -1.74284601e-01  5.47618096e-02
  1.37372270e-01  1.45018202e-01  9.43060747e-01  9.75399401e-01
  1.29120806e+00  3.14781825e+00  3.22749222e+00  7.13206011e+00
  1.11065432e+01  1.12295781e+01  3.34643230e+01  5.04120835e+01
  5.05146097e+01  1.64218965e+02]
alpha-B1g nocc = 0
   mo_energy = [ 0.1450182   0.9753994   3.22749222 11.22957812 50.51460973]
alpha-B2g nocc = 0
   mo_energy = [ 0.13905378  0.9512501   3.16695569 11.13623092 50.43745602]
alpha-B3g nocc = 0
   mo_energy = [ 0.13905378  0.9512501   3.16695569 11.13623092 50.43745602]
alpha-Au nocc = 0
   mo_energy = [ 1.41421407  4.6298789  12.03618597]
alpha-B1u nocc = 1  HOMO = -1.74097847817529  LUMO = -0.109804417307947
   mo_energy = [-1.74097848e+00 -1.09804417e-01  3.19268642e-02  8.64652456e-01
  1.40434685e+00  1.41421407e+00  4.60047112e+00  4.62987890e+00
  5.23511571e+00  1.19859053e+01  1.20361860e+01  2.86485810e+01
  1.38611612e+02]
alpha-B2u nocc = 1  HOMO = -1.60624789946032  LUMO = -0.105878357833282
   mo_energy = [-1.60624790e+00 -1.05878358e-01  4.08457861e-02  9.09362018e-01
  1.40679776e+00  1.42698580e+00  4.60802594e+00  4.66537863e+00
  5.33610658e+00  1.19984378e+01  1.20996421e+01  2.87492153e+01
  1.38667358e+02]
alpha-B3u nocc = 1  HOMO = -1.60624789946031  LUMO = -0.105878357833284
   mo_energy = [-1.60624790e+00 -1.05878358e-01  4.08457861e-02  9.09362018e-01
  1.40679776e+00  1.42698580e+00  4.60802594e+00  4.66537863e+00
  5.33610658e+00  1.19984378e+01  1.20996421e+01  2.87492153e+01
  1.38667358e+02]
beta-Ag nocc = 2  HOMO = -2.51026516055231  LUMO = -0.171031631965878
   mo_energy = [-3.35858835e+01 -2.51026516e+00 -1.71031632e-01  6.16091988e-02
  1.40815767e-01  1.44755891e-01  9.75296304e-01  9.79803156e-01
  1.32488777e+00  3.23715346e+00  3.27019794e+00  7.19499088e+00
  1.12521273e+01  1.12710668e+01  3.35090663e+01  5.04986402e+01
  5.05289334e+01  1.64233233e+02]
beta-B1g nocc = 0
   mo_energy = [ 0.14475589  0.9752963   3.23715346 11.25212727 50.52893339]
beta-B2g nocc = 0
   mo_energy = [ 0.14161112  0.9786088   3.26122147 11.26603013 50.50616428]
beta-B3g nocc = 0
   mo_energy = [ 0.14161112  0.9786088   3.26122147 11.26603013 50.50616428]
beta-Au nocc = 0
   mo_energy = [ 1.41750887  4.65080662 12.08463508]
beta-B1u nocc = 0
   mo_energy = [-6.20238516e-01 -1.01198687e-01  5.83177487e-02  9.94169821e-01
  1.41066729e+00  1.41750887e+00  4.63827427e+00  4.65080662e+00
  5.43610152e+00  1.20662535e+01  1.20846351e+01  2.87707217e+01
  1.38646876e+02]
beta-B2u nocc = 1  HOMO = -1.54691217801678  LUMO = -0.105364759975027
   mo_energy = [-1.54691218e+00 -1.05364760e-01  4.25593518e-02  9.21472652e-01
  1.41233604e+00  1.42628443e+00  4.64142534e+00  4.66609028e+00
  5.36374219e+00  1.20708563e+01  1.21075018e+01  2.87719979e+01
  1.38675742e+02]
beta-B3u nocc = 1  HOMO = -1.54691217801677  LUMO = -0.105364759975029
   mo_energy = [-1.54691218e+00 -1.05364760e-01  4.25593518e-02  9.21472652e-01
  1.41233604e+00  1.42628443e+00  4.64142534e+00  4.66609028e+00
  5.36374219e+00  1.20708563e+01  1.21075018e+01  2.87719979e+01
  1.38675742e+02]
multiplicity <S^2> = 0.75266277  2S+1 = 2.002661
E1 = -175.09378379640458  Ecoul = 47.28381627901203
cycle= 6 E= -127.809967517393  delta_E= -1.02e-06  |g|= 0.000167  |ddm|= 0.00109
    CPU time for cycle= 6      0.07 sec, wall time      0.02 sec
diis-norm(errvec)=0.000236734
diis-c [-1.03939231e-08 -8.22949379e-05  5.80226969e-04 -8.77179833e-03
  9.84530393e-02 -3.70807670e-01  1.28062850e+00]
alpha HOMO (B3u) = -1.60629437881553  LUMO (Ag) = -0.174282722077786
alpha irrep_nelec = [2, 0, 0, 0, 0, 1, 1, 1]
beta  irrep_nelec = [2, 0, 0, 0, 0, 0, 1, 1]
alpha-Ag nocc = 2  HOMO = -2.73640808658871  LUMO = -0.174282722077786
   mo_energy = [-3.36466193e+01 -2.73640809e+00 -1.74282722e-01  5.47649330e-02
  1.37374594e-01  1.45021336e-01  9.43074351e-01  9.75417708e-01
  1.29121525e+00  3.14783854e+00  3.22749955e+00  7.13206854e+00
  1.11065639e+01  1.12295731e+01  3.34643460e+01  5.04121133e+01
  5.05146261e+01  1.64219012e+02]
alpha-B1g nocc = 0
   mo_energy = [ 0.14502134  0.97541771  3.22749955 11.22957309 50.51462608]
alpha-B2g nocc = 0
   mo_energy = [ 0.13905632  0.9512663   3.16697468 11.13624689 50.437483  ]
alpha-B3g nocc = 0
   mo_energy = [ 0.13905632  0.9512663   3.16697468 11.13624689 50.437483  ]
alpha-Au nocc = 0
   mo_energy = [ 1.41422134  4.62989841 12.03620818]
alpha-B1u nocc = 1  HOMO = -1.74093861204965  LUMO = -0.109803138777865
   mo_energy = [-1.74093861e+00 -1.09803139e-01  3.19300236e-02  8.64668405e-01
  1.40435331e+00  1.41422134e+00  4.60049094e+00  4.62989841e+00
  5.23514686e+00  1.19859315e+01  1.20362082e+01  2.86486164e+01
  1.38611658e+02]
alpha-B2u nocc = 1  HOMO = -1.60629437881553  LUMO = -0.105878596666326
   mo_energy = [-1.60629438e+00 -1.05878597e-01  4.08449904e-02  9.09356635e-01
  1.40680446e+00  1.42699335e+00  4.60804582e+00  4.66539543e+00
  5.33610244e+00  1.19984632e+01  1.20996562e+01  2.87492312e+01
  1.38667399e+02]
alpha-B3u nocc = 1  HOMO = -1.60629437881553  LUMO = -0.105878596666325
   mo_energy = [-1.60629438e+00 -1.05878597e-01  4.08449904e-02  9.09356635e-01
  1.40680446e+00  1.42699335e+00  4.60804582e+00  4.66539543e+00
  5.33610244e+00  1.19984632e+01  1.20996562e+01  2.87492312e+01
  1.38667399e+02]
beta-Ag nocc = 2  HOMO = -2.51021607162314  LUMO = -0.171032020402076
   mo_energy = [-3.35858203e+01 -2.51021607e+00 -1.71032020e-01  6.16095648e-02
  1.40815166e-01  1.44753566e-01  9.75293151e-01  9.79804394e-01
  1.32489946e+00  3.23717965e+00  3.27021549e+00  7.19503222e+00
  1.12521985e+01  1.12711135e+01  3.35091177e+01  5.04986880e+01
  5.05289954e+01  1.64233290e+02]
beta-B1g nocc = 0
   mo_energy = [ 0.14475357  0.97529315  3.23717965 11.25219846 50.52899542]
beta-B2g nocc = 0
   mo_energy = [ 0.14161007  0.97860667  3.26123646 11.26608135 50.50621569]
beta-B3g nocc = 0
   mo_energy = [ 0.14161007  0.97860667  3.26123646 11.26608135 50.50621569]
beta-Au nocc = 0
   mo_energy = [ 1.41750755  4.65081537 12.08467084]
beta-B1u nocc = 0
   mo_energy = [-6.20225792e-01 -1.01198088e-01  5.83196757e-02  9.94180976e-01
  1.41066739e+00  1.41750755e+00  4.63828380e+00  4.65081537e+00
  5.43612990e+00  1.20662854e+01  1.20846708e+01  2.87707651e+01
  1.38646927e+02]
beta-B2u nocc = 1  HOMO = -1.54681749904631  LUMO = -0.105363716576147
   mo_energy = [-1.54681750e+00 -1.05363717e-01  4.25626987e-02  9.21496923e-01
  1.41233577e+00  1.42628163e+00  4.64143449e+00  4.66610051e+00
  5.36380298e+00  1.20708891e+01  1.21075445e+01  2.87720611e+01
  1.38675797e+02]
beta-B3u nocc = 1  HOMO = -1.54681749904631  LUMO = -0.105363716576147
   mo_energy = [-1.54681750e+00 -1.05363717e-01  4.25626987e-02  9.21496923e-01
  1.41233577e+00  1.42628163e+00  4.64143449e+00  4.66610051e+00
  5.36380298e+00  1.20708891e+01  1.21075445e+01  2.87720611e+01
  1.38675797e+02]
multiplicity <S^2> = 0.75266679  2S+1 = 2.002665
E1 = -175.09373051181205  Ecoul = 47.28376298067103
cycle= 7 E= -127.809967531141  delta_E= -1.37e-08  |g|= 2.01e-05  |ddm|= 0.000133
    CPU time for cycle= 7      0.06 sec, wall time      0.02 sec
diis-norm(errvec)=2.84301e-05
diis-c [-2.00535604e-10  1.59533718e-05 -9.83949550e-05  1.51387977e-03
 -1.89742568e-02  7.68250125e-02 -3.42741469e-01  1.28345928e+00]
alpha HOMO (B2u) = -1.6062994245458  LUMO (Ag) = -0.174282409998349
alpha irrep_nelec = [2, 0, 0, 0, 0, 1, 1, 1]
beta  irrep_nelec = [2, 0, 0, 0, 0, 0, 1, 1]
alpha-Ag nocc = 2  HOMO = -2.73640734594237  LUMO = -0.174282409998349
   mo_energy = [-3.36466168e+01 -2.73640735e+00 -1.74282410e-01  5.47653349e-02
  1.37374985e-01  1.45021768e-01  9.43074998e-01  9.75419853e-01
  1.29121641e+00  3.14784000e+00  3.22750054e+00  7.13207049e+00
  1.11065672e+01  1.12295733e+01  3.34643489e+01  5.04121164e+01
  5.05146290e+01  1.64219016e+02]
alpha-B1g nocc = 0
   mo_energy = [ 0.14502177  0.97541985  3.22750054 11.22957326 50.51462898]
alpha-B2g nocc = 0
   mo_energy = [ 0.13905672  0.9512675   3.16697618 11.13624948 50.43748603]
alpha-B3g nocc = 0
   mo_energy = [ 0.13905672  0.9512675   3.16697618 11.13624948 50.43748603]
alpha-Au nocc = 0
   mo_energy = [ 1.41422222  4.6299002  12.0362104 ]
alpha-B1u nocc = 1  HOMO = -1.74092796020587  LUMO = -0.109802921914768
   mo_energy = [-1.74092796e+00 -1.09802922e-01  3.19305632e-02  8.64671636e-01
  1.40435423e+00  1.41422222e+00  4.60049258e+00  4.62990020e+00
  5.23515283e+00  1.19859338e+01  1.20362104e+01  2.86486205e+01
  1.38611661e+02]
alpha-B2u nocc = 1  HOMO = -1.6062994245458  LUMO = -0.105878755103361
   mo_energy = [-1.60629942e+00 -1.05878755e-01  4.08446417e-02  9.09355455e-01
  1.40680537e+00  1.42699408e+00  4.60804750e+00  4.66539728e+00
  5.33610170e+00  1.19984655e+01  1.20996584e+01  2.87492332e+01
  1.38667403e+02]
alpha-B3u nocc = 1  HOMO = -1.60629942454581  LUMO = -0.105878755103361
   mo_energy = [-1.60629942e+00 -1.05878755e-01  4.08446417e-02  9.09355455e-01
  1.40680537e+00  1.42699408e+00  4.60804750e+00  4.66539728e+00
  5.33610170e+00  1.19984655e+01  1.20996584e+01  2.87492332e+01
  1.38667403e+02]
beta-Ag nocc = 2  HOMO = -2.51021159314904  LUMO = -0.171031895400826
   mo_energy = [-3.35858155e+01 -2.51021159e+00 -1.71031895e-01  6.16097892e-02
  1.40815438e-01  1.44753396e-01  9.75292741e-01  9.79805395e-01
  1.32490071e+00  3.23718182e+00  3.27021763e+00  7.19503575e+00
  1.12522050e+01  1.12711161e+01  3.35091220e+01  5.04986903e+01
  5.05290025e+01  1.64233294e+02]
beta-B1g nocc = 0
   mo_energy = [ 0.1447534   0.97529274  3.23718182 11.25220502 50.52900248]
beta-B2g nocc = 0
   mo_energy = [ 0.14161022  0.97860712  3.26123859 11.26608497 50.50621922]
beta-B3g nocc = 0
   mo_energy = [ 0.14161022  0.97860712  3.26123859 11.26608497 50.50621922]
beta-Au nocc = 0
   mo_energy = [ 1.41750774  4.65081667 12.08467417]
beta-B1u nocc = 0
   mo_energy = [-6.20223705e-01 -1.01197948e-01  5.83200421e-02  9.94182242e-01
  1.41066812e+00  1.41750774e+00  4.63828568e+00  4.65081667e+00
  5.43613173e+00  1.20662880e+01  1.20846742e+01  2.87707668e+01
  1.38646929e+02]
beta-B2u nocc = 1  HOMO = -1.54681085691769  LUMO = -0.105363722350267
   mo_energy = [-1.54681086e+00 -1.05363722e-01  4.25628125e-02  9.21498588e-01
  1.41233637e+00  1.42628120e+00  4.64143622e+00  4.66610123e+00
  5.36380793e+00  1.20708918e+01  1.21075488e+01  2.87720671e+01
  1.38675802e+02]
beta-B3u nocc = 1  HOMO = -1.5468108569177  LUMO = -0.105363722350265
   mo_energy = [-1.54681086e+00 -1.05363722e-01  4.25628125e-02  9.21498588e-01
  1.41233637e+00  1.42628120e+00  4.64143622e+00  4.66610123e+00
  5.36380793e+00  1.20708918e+01  1.21075488e+01  2.87720671e+01
  1.38675802e+02]
multiplicity <S^2> = 0.75266737  2S+1 = 2.0026656
E1 = -175.09373419055208  Ecoul = 47.283766659206506
cycle= 8 E= -127.809967531346  delta_E= -2.05e-10  |g|= 2.16e-06  |ddm|= 1.66e-05
    CPU time for cycle= 8      0.07 sec, wall time      0.02 sec
diis-norm(errvec)=3.06047e-06
diis-c [-1.14039928e-12 -7.22875746e-07  8.03503813e-06 -1.13660004e-04
  1.58107078e-03 -6.97862768e-03  3.89614600e-02 -2.36330422e-01
  1.20287287e+00]
alpha HOMO (B3u) = -1.60630014231167  LUMO (Ag) = -0.174282386963682
alpha irrep_nelec = [2, 0, 0, 0, 0, 1, 1, 1]
beta  irrep_nelec = [2, 0, 0, 0, 0, 0, 1, 1]
alpha-Ag nocc = 2  HOMO = -2.73640749575376  LUMO = -0.174282386963682
   mo_energy = [-3.36466170e+01 -2.73640750e+00 -1.74282387e-01  5.47653543e-02
  1.37374997e-01  1.45021782e-01  9.43074882e-01  9.75419929e-01
  1.29121641e+00  3.14783991e+00  3.22750049e+00  7.13207035e+00
  1.11065671e+01  1.12295729e+01  3.34643486e+01  5.04121162e+01
  5.05146288e+01  1.64219015e+02]
alpha-B1g nocc = 0
   mo_energy = [ 0.14502178  0.97541993  3.22750049 11.22957288 50.51462875]
alpha-B2g nocc = 0
   mo_energy = [ 0.13905673  0.95126743  3.16697608 11.13624932 50.43748579]
alpha-B3g nocc = 0
   mo_energy = [ 0.13905673  0.95126743  3.16697608 11.13624932 50.43748579]
alpha-Au nocc = 0
   mo_energy = [ 1.41422223  4.62990014 12.03621022]
alpha-B1u nocc = 1  HOMO = -1.74092750829509  LUMO = -0.109802878760771
   mo_energy = [-1.74092751e+00 -1.09802879e-01  3.19306549e-02  8.64671928e-01
  1.40435425e+00  1.41422223e+00  4.60049251e+00  4.62990014e+00
  5.23515310e+00  1.19859336e+01  1.20362102e+01  2.86486204e+01
  1.38611661e+02]
alpha-B2u nocc = 1  HOMO = -1.60630014231168  LUMO = -0.105878758139359
   mo_energy = [-1.60630014e+00 -1.05878758e-01  4.08446296e-02  9.09355275e-01
  1.40680539e+00  1.42699409e+00  4.60804743e+00  4.66539725e+00
  5.33610127e+00  1.19984653e+01  1.20996582e+01  2.87492329e+01
  1.38667402e+02]
alpha-B3u nocc = 1  HOMO = -1.60630014231167  LUMO = -0.105878758139361
   mo_energy = [-1.60630014e+00 -1.05878758e-01  4.08446296e-02  9.09355275e-01
  1.40680539e+00  1.42699409e+00  4.60804743e+00  4.66539725e+00
  5.33610127e+00  1.19984653e+01  1.20996582e+01  2.87492329e+01
  1.38667402e+02]
beta-Ag nocc = 2  HOMO = -2.51021148306828  LUMO = -0.171031881687697
   mo_energy = [-3.35858156e+01 -2.51021148e+00 -1.71031882e-01  6.16098054e-02
  1.40815462e-01  1.44753367e-01  9.75292582e-01  9.79805444e-01
  1.32490071e+00  3.23718167e+00  3.27021761e+00  7.19503569e+00
  1.12522050e+01  1.12711158e+01  3.35091218e+01  5.04986899e+01
  5.05290025e+01  1.64233293e+02]
beta-B1g nocc = 0
   mo_energy = [ 0.14475337  0.97529258  3.23718167 11.25220499 50.52900252]
beta-B2g nocc = 0
   mo_energy = [ 0.14161024  0.97860715  3.26123859 11.26608477 50.50621891]
beta-B3g nocc = 0
   mo_energy = [ 0.14161024  0.97860715  3.26123859 11.26608477 50.50621891]
beta-Au nocc = 0
   mo_energy = [ 1.41750774  4.65081662 12.08467403]
beta-B1u nocc = 0
   mo_energy = [-6.20223705e-01 -1.01197938e-01  5.83200617e-02  9.94182250e-01
  1.41066819e+00  1.41750774e+00  4.63828572e+00  4.65081662e+00
  5.43613153e+00  1.20662878e+01  1.20846740e+01  2.87707664e+01
  1.38646929e+02]
beta-B2u nocc = 1  HOMO = -1.54681099168321  LUMO = -0.105363721822945
   mo_energy = [-1.54681099e+00 -1.05363722e-01  4.25628132e-02  9.21498534e-01
  1.41233642e+00  1.42628111e+00  4.64143624e+00  4.66610103e+00
  5.36380780e+00  1.20708917e+01  1.21075487e+01  2.87720671e+01
  1.38675802e+02]
beta-B3u nocc = 1  HOMO = -1.5468109916832  LUMO = -0.105363721822949
   mo_energy = [-1.54681099e+00 -1.05363722e-01  4.25628132e-02  9.21498534e-01
  1.41233642e+00  1.42628111e+00  4.64143624e+00  4.66610103e+00
  5.36380780e+00  1.20708917e+01  1.21075487e+01  2.87720671e+01
  1.38675802e+02]
multiplicity <S^2> = 0.75266743  2S+1 = 2.0026657
E1 = -175.09373317963073  Ecoul = 47.28376564828318
cycle= 9 E= -127.809967531348  delta_E= -1.98e-12  |g|= 1.32e-07  |ddm|= 2.07e-06
    CPU time for cycle= 9      0.07 sec, wall time      0.02 sec
diis-norm(errvec)=1.87122e-07
diis-c [-3.37682325e-15  1.15916248e+00 -6.49849927e-07  9.95435542e-06
 -1.36765576e-04  6.42186299e-04 -3.84325824e-03  2.80502927e-02
 -1.83884237e-01]
alpha HOMO (B3u) = -1.60630017125219  LUMO (Ag) = -0.17428239422375
alpha irrep_nelec = [2, 0, 0, 0, 0, 1, 1, 1]
beta  irrep_nelec = [2, 0, 0, 0, 0, 0, 1, 1]
alpha-Ag nocc = 2  HOMO = -2.7364075202661  LUMO = -0.17428239422375
   mo_energy = [-3.36466171e+01 -2.73640752e+00 -1.74282394e-01  5.47653456e-02
  1.37374990e-01  1.45021775e-01  9.43074862e-01  9.75419915e-01
  1.29121639e+00  3.14783989e+00  3.22750046e+00  7.13207031e+00
  1.11065671e+01  1.12295728e+01  3.34643486e+01  5.04121161e+01
  5.05146287e+01  1.64219015e+02]
alpha-B1g nocc = 0
   mo_energy = [ 0.14502178  0.97541992  3.22750046 11.22957282 50.51462869]
alpha-B2g nocc = 0
   mo_energy = [ 0.13905672  0.95126741  3.16697605 11.13624927 50.43748572]
alpha-B3g nocc = 0
   mo_energy = [ 0.13905672  0.95126741  3.16697605 11.13624927 50.43748572]
alpha-Au nocc = 0
   mo_energy = [ 1.41422221  4.62990011 12.03621018]
alpha-B1u nocc = 1  HOMO = -1.74092750854556  LUMO = -0.10980288010998
   mo_energy = [-1.74092751e+00 -1.09802880e-01  3.19306514e-02  8.64671918e-01
  1.40435424e+00  1.41422221e+00  4.60049248e+00  4.62990011e+00
  5.23515307e+00  1.19859336e+01  1.20362102e+01  2.86486204e+01
  1.38611661e+02]
alpha-B2u nocc = 1  HOMO = -1.6063001712522  LUMO = -0.105878759953607
   mo_energy = [-1.60630017e+00 -1.05878760e-01  4.08446243e-02  9.09355252e-01
  1.40680538e+00  1.42699408e+00  4.60804740e+00  4.66539723e+00
  5.33610122e+00  1.19984653e+01  1.20996581e+01  2.87492328e+01
  1.38667402e+02]
alpha-B3u nocc = 1  HOMO = -1.60630017125219  LUMO = -0.105878759953602
   mo_energy = [-1.60630017e+00 -1.05878760e-01  4.08446243e-02  9.09355252e-01
  1.40680538e+00  1.42699408e+00  4.60804740e+00  4.66539723e+00
  5.33610122e+00  1.19984653e+01  1.20996581e+01  2.87492328e+01
  1.38667402e+02]
beta-Ag nocc = 2  HOMO = -2.51021153949956  LUMO = -0.17103188477338
   mo_energy = [-3.35858157e+01 -2.51021154e+00 -1.71031885e-01  6.16098016e-02
  1.40815460e-01  1.44753362e-01  9.75292567e-01  9.79805435e-01
  1.32490069e+00  3.23718162e+00  3.27021758e+00  7.19503564e+00
  1.12522049e+01  1.12711158e+01  3.35091218e+01  5.04986898e+01
  5.05290025e+01  1.64233293e+02]
beta-B1g nocc = 0
   mo_energy = [ 0.14475336  0.97529257  3.23718162 11.25220493 50.52900245]
beta-B2g nocc = 0
   mo_energy = [ 0.14161024  0.97860715  3.26123855 11.26608471 50.50621884]
beta-B3g nocc = 0
   mo_energy = [ 0.14161024  0.97860715  3.26123855 11.26608471 50.50621884]
beta-Au nocc = 0
   mo_energy = [ 1.41750774  4.6508166  12.08467398]
beta-B1u nocc = 0
   mo_energy = [-6.20223740e-01 -1.01197939e-01  5.83200581e-02  9.94182232e-01
  1.41066818e+00  1.41750774e+00  4.63828569e+00  4.65081660e+00
  5.43613148e+00  1.20662878e+01  1.20846740e+01  2.87707663e+01
  1.38646929e+02]
beta-B2u nocc = 1  HOMO = -1.5468110656994  LUMO = -0.105363723514785
   mo_energy = [-1.54681107e+00 -1.05363724e-01  4.25628082e-02  9.21498509e-01
  1.41233641e+00  1.42628110e+00  4.64143622e+00  4.66610099e+00
  5.36380774e+00  1.20708916e+01  1.21075486e+01  2.87720670e+01
  1.38675802e+02]
beta-B3u nocc = 1  HOMO = -1.54681106569941  LUMO = -0.105363723514786
   mo_energy = [-1.54681107e+00 -1.05363724e-01  4.25628082e-02  9.21498509e-01
  1.41233641e+00  1.42628110e+00  4.64143622e+00  4.66610099e+00
  5.36380774e+00  1.20708916e+01  1.21075486e+01  2.87720670e+01
  1.38675802e+02]
multiplicity <S^2> = 0.75266743  2S+1 = 2.0026657
E1 = -175.09373322784995  Ecoul = 47.28376569650237
cycle= 10 E= -127.809967531348  delta_E= -2.84e-14  |g|= 5.79e-09  |ddm|= 7.6e-08
    CPU time for cycle= 10      0.06 sec, wall time      0.02 sec
diis-norm(errvec)=8.19347e-09
Linear dependence found in DIIS error vectors.
diis-c [-1.20445566e-15  4.90965604e-01  5.71452728e-01  9.14274981e-07
 -2.62848050e-05  1.55666543e-04 -1.14260616e-03  9.91621267e-03
 -7.13222339e-02]
alpha HOMO (B2u) = -1.60630017023968  LUMO (Ag) = -0.17428239431618
alpha irrep_nelec = [2, 0, 0, 0, 0, 1, 1, 1]
beta  irrep_nelec = [2, 0, 0, 0, 0, 0, 1, 1]
alpha-Ag nocc = 2  HOMO = -2.73640752007862  LUMO = -0.17428239431618
   mo_energy = [-3.36466171e+01 -2.73640752e+00 -1.74282394e-01  5.47653455e-02
  1.37374990e-01  1.45021775e-01  9.43074862e-01  9.75419915e-01
  1.29121639e+00  3.14783989e+00  3.22750046e+00  7.13207031e+00
  1.11065671e+01  1.12295728e+01  3.34643486e+01  5.04121161e+01
  5.05146287e+01  1.64219015e+02]
alpha-B1g nocc = 0
   mo_energy = [ 0.14502178  0.97541992  3.22750046 11.22957282 50.51462869]
alpha-B2g nocc = 0
   mo_energy = [ 0.13905672  0.95126741  3.16697605 11.13624927 50.43748572]
alpha-B3g nocc = 0
   mo_energy = [ 0.13905672  0.95126741  3.16697605 11.13624927 50.43748572]
alpha-Au nocc = 0
   mo_energy = [ 1.41422221  4.62990011 12.03621018]
alpha-B1u nocc = 1  HOMO = -1.7409275081152  LUMO = -0.109802880107373
   mo_energy = [-1.74092751e+00 -1.09802880e-01  3.19306514e-02  8.64671918e-01
  1.40435424e+00  1.41422221e+00  4.60049248e+00  4.62990011e+00
  5.23515307e+00  1.19859336e+01  1.20362102e+01  2.86486204e+01
  1.38611661e+02]
alpha-B2u nocc = 1  HOMO = -1.60630017023968  LUMO = -0.105878759949619
   mo_energy = [-1.60630017e+00 -1.05878760e-01  4.08446243e-02  9.09355252e-01
  1.40680538e+00  1.42699408e+00  4.60804740e+00  4.66539723e+00
  5.33610122e+00  1.19984653e+01  1.20996581e+01  2.87492328e+01
  1.38667402e+02]
alpha-B3u nocc = 1  HOMO = -1.60630017023968  LUMO = -0.105878759949622
   mo_energy = [-1.60630017e+00 -1.05878760e-01  4.08446243e-02  9.09355252e-01
  1.40680538e+00  1.42699408e+00  4.60804740e+00  4.66539723e+00
  5.33610122e+00  1.19984653e+01  1.20996581e+01  2.87492328e+01
  1.38667402e+02]
beta-Ag nocc = 2  HOMO = -2.51021154031087  LUMO = -0.1710318848044
   mo_energy = [-3.35858157e+01 -2.51021154e+00 -1.71031885e-01  6.16098015e-02
  1.40815460e-01  1.44753362e-01  9.75292567e-01  9.79805435e-01
  1.32490069e+00  3.23718162e+00  3.27021758e+00  7.19503564e+00
  1.12522049e+01  1.12711158e+01  3.35091218e+01  5.04986898e+01
  5.05290025e+01  1.64233293e+02]
beta-B1g nocc = 0
   mo_energy = [ 0.14475336  0.97529257  3.23718162 11.25220493 50.52900245]
beta-B2g nocc = 0
   mo_energy = [ 0.14161024  0.97860715  3.26123855 11.26608471 50.50621884]
beta-B3g nocc = 0
   mo_energy = [ 0.14161024  0.97860715  3.26123855 11.26608471 50.50621884]
beta-Au nocc = 0
   mo_energy = [ 1.41750774  4.6508166  12.08467398]
beta-B1u nocc = 0
   mo_energy = [-6.20223740e-01 -1.01197939e-01  5.83200580e-02  9.94182232e-01
  1.41066818e+00  1.41750774e+00  4.63828569e+00  4.65081660e+00
  5.43613148e+00  1.20662878e+01  1.20846740e+01  2.87707663e+01
  1.38646929e+02]
beta-B2u nocc = 1  HOMO = -1.54681106604068  LUMO = -0.105363723523872
   mo_energy = [-1.54681107e+00 -1.05363724e-01  4.25628081e-02  9.21498509e-01
  1.41233641e+00  1.42628110e+00  4.64143622e+00  4.66610099e+00
  5.36380774e+00  1.20708916e+01  1.21075486e+01  2.87720670e+01
  1.38675802e+02]
beta-B3u nocc = 1  HOMO = -1.54681106604068  LUMO = -0.105363723523869
   mo_energy = [-1.54681107e+00 -1.05363724e-01  4.25628081e-02  9.21498509e-01
  1.41233641e+00  1.42628110e+00  4.64143622e+00  4.66610099e+00
  5.36380774e+00  1.20708916e+01  1.21075486e+01  2.87720670e+01
  1.38675802e+02]
multiplicity <S^2> = 0.75266743  2S+1 = 2.0026657
E1 = -175.09373322730875  Ecoul = 47.283765695961236
cycle= 11 E= -127.809967531348  delta_E= 7.11e-14  |g|= 3.47e-09  |ddm|= 2.17e-09
    CPU time for cycle= 11      0.07 sec, wall time      0.02 sec
diis-norm(errvec)=4.90049e-09
Linear dependence found in DIIS error vectors.
diis-c [-7.72597845e-16  3.14005469e-01  3.62167349e-01  3.62450998e-01
 -1.14905923e-05  7.81226573e-05 -6.17378486e-04  5.86803495e-03
 -4.39411054e-02]
alpha HOMO (B2u) = -1.60630017168987  LUMO (Ag) = -0.174282394380934
alpha irrep_nelec = [2, 0, 0, 0, 0, 1, 1, 1]
beta  irrep_nelec = [2, 0, 0, 0, 0, 0, 1, 1]
alpha-Ag nocc = 2  HOMO = -2.73640752204429  LUMO = -0.174282394380934
   mo_energy = [-3.36466171e+01 -2.73640752e+00 -1.74282394e-01  5.47653454e-02
  1.37374990e-01  1.45021775e-01  9.43074862e-01  9.75419915e-01
  1.29121639e+00  3.14783989e+00  3.22750046e+00  7.13207031e+00
  1.11065671e+01  1.12295728e+01  3.34643486e+01  5.04121161e+01
  5.05146287e+01  1.64219015e+02]
alpha-B1g nocc = 0
   mo_energy = [ 0.14502178  0.97541992  3.22750046 11.22957282 50.51462868]
alpha-B2g nocc = 0
   mo_energy = [ 0.13905672  0.95126741  3.16697605 11.13624927 50.43748572]
alpha-B3g nocc = 0
   mo_energy = [ 0.13905672  0.95126741  3.16697605 11.13624927 50.43748572]
alpha-Au nocc = 0
   mo_energy = [ 1.41422221  4.62990011 12.03621018]
alpha-B1u nocc = 1  HOMO = -1.74092751060308  LUMO = -0.109802880140676
   mo_energy = [-1.74092751e+00 -1.09802880e-01  3.19306513e-02  8.64671917e-01
  1.40435424e+00  1.41422221e+00  4.60049248e+00  4.62990011e+00
  5.23515307e+00  1.19859336e+01  1.20362102e+01  2.86486204e+01
  1.38611661e+02]
alpha-B2u nocc = 1  HOMO = -1.60630017168987  LUMO = -0.10587875995991
   mo_energy = [-1.60630017e+00 -1.05878760e-01  4.08446243e-02  9.09355252e-01
  1.40680538e+00  1.42699408e+00  4.60804740e+00  4.66539723e+00
  5.33610122e+00  1.19984653e+01  1.20996581e+01  2.87492328e+01
  1.38667402e+02]
alpha-B3u nocc = 1  HOMO = -1.60630017168988  LUMO = -0.10587875995991
   mo_energy = [-1.60630017e+00 -1.05878760e-01  4.08446243e-02  9.09355252e-01
  1.40680538e+00  1.42699408e+00  4.60804740e+00  4.66539723e+00
  5.33610122e+00  1.19984653e+01  1.20996581e+01  2.87492328e+01
  1.38667402e+02]
beta-Ag nocc = 2  HOMO = -2.51021154223422  LUMO = -0.171031884838329
   mo_energy = [-3.35858157e+01 -2.51021154e+00 -1.71031885e-01  6.16098014e-02
  1.40815460e-01  1.44753362e-01  9.75292567e-01  9.79805435e-01
  1.32490069e+00  3.23718162e+00  3.27021758e+00  7.19503564e+00
  1.12522049e+01  1.12711158e+01  3.35091218e+01  5.04986898e+01
  5.05290024e+01  1.64233293e+02]
beta-B1g nocc = 0
   mo_energy = [ 0.14475336  0.97529257  3.23718162 11.25220493 50.52900245]
beta-B2g nocc = 0
   mo_energy = [ 0.14161024  0.97860715  3.26123855 11.2660847  50.50621883]
beta-B3g nocc = 0
   mo_energy = [ 0.14161024  0.97860715  3.26123855 11.2660847  50.50621883]
beta-Au nocc = 0
   mo_energy = [ 1.41750774  4.65081659 12.08467398]
beta-B1u nocc = 0
   mo_energy = [-6.20223741e-01 -1.01197939e-01  5.83200579e-02  9.94182231e-01
  1.41066818e+00  1.41750774e+00  4.63828569e+00  4.65081659e+00
  5.43613148e+00  1.20662878e+01  1.20846740e+01  2.87707663e+01
  1.38646929e+02]
beta-B2u nocc = 1  HOMO = -1.5468110681069  LUMO = -0.105363723537821
   mo_energy = [-1.54681107e+00 -1.05363724e-01  4.25628081e-02  9.21498508e-01
  1.41233641e+00  1.42628110e+00  4.64143621e+00  4.66610099e+00
  5.36380774e+00  1.20708916e+01  1.21075486e+01  2.87720670e+01
  1.38675802e+02]
beta-B3u nocc = 1  HOMO = -1.5468110681069  LUMO = -0.105363723537823
   mo_energy = [-1.54681107e+00 -1.05363724e-01  4.25628081e-02  9.21498508e-01
  1.41233641e+00  1.42628110e+00  4.64143621e+00  4.66610099e+00
  5.36380774e+00  1.20708916e+01  1.21075486e+01  2.87720670e+01
  1.38675802e+02]
multiplicity <S^2> = 0.75266743  2S+1 = 2.0026657
E1 = -175.0937332364134  Ecoul = 47.28376570506599
cycle= 12 E= -127.809967531347  delta_E= 8.53e-14  |g|= 5.01e-09  |ddm|= 1.56e-09
    CPU time for cycle= 12      0.07 sec, wall time      0.02 sec
diis-norm(errvec)=7.0824e-09
Linear dependence found in DIIS error vectors.
diis-c [-5.94399495e-16  2.36771761e-01  2.61601240e-01  2.61733867e-01
  2.61583919e-01  8.89436860e-06 -1.32810406e-04  2.42066998e-03
 -2.39875411e-02]
alpha HOMO (B2u) = -1.60630017198834  LUMO (Ag) = -0.174282394426067
alpha irrep_nelec = [2, 0, 0, 0, 0, 1, 1, 1]
beta  irrep_nelec = [2, 0, 0, 0, 0, 0, 1, 1]
alpha-Ag nocc = 2  HOMO = -2.73640752229715  LUMO = -0.174282394426067
   mo_energy = [-3.36466171e+01 -2.73640752e+00 -1.74282394e-01  5.47653453e-02
  1.37374990e-01  1.45021775e-01  9.43074861e-01  9.75419915e-01
  1.29121639e+00  3.14783989e+00  3.22750046e+00  7.13207031e+00
  1.11065671e+01  1.12295728e+01  3.34643486e+01  5.04121161e+01
  5.05146287e+01  1.64219015e+02]
alpha-B1g nocc = 0
   mo_energy = [ 0.14502178  0.97541991  3.22750046 11.22957282 50.51462868]
alpha-B2g nocc = 0
   mo_energy = [ 0.13905672  0.9512674   3.16697605 11.13624927 50.43748572]
alpha-B3g nocc = 0
   mo_energy = [ 0.13905672  0.9512674   3.16697605 11.13624927 50.43748572]
alpha-Au nocc = 0
   mo_energy = [ 1.41422221  4.62990011 12.03621018]
alpha-B1u nocc = 1  HOMO = -1.74092751040171  LUMO = -0.109802880145144
   mo_energy = [-1.74092751e+00 -1.09802880e-01  3.19306513e-02  8.64671917e-01
  1.40435424e+00  1.41422221e+00  4.60049248e+00  4.62990011e+00
  5.23515307e+00  1.19859336e+01  1.20362102e+01  2.86486204e+01
  1.38611661e+02]
alpha-B2u nocc = 1  HOMO = -1.60630017198834  LUMO = -0.105878759964339
   mo_energy = [-1.60630017e+00 -1.05878760e-01  4.08446243e-02  9.09355252e-01
  1.40680538e+00  1.42699408e+00  4.60804740e+00  4.66539723e+00
  5.33610122e+00  1.19984653e+01  1.20996581e+01  2.87492328e+01
  1.38667402e+02]
alpha-B3u nocc = 1  HOMO = -1.60630017198834  LUMO = -0.105878759964343
   mo_energy = [-1.60630017e+00 -1.05878760e-01  4.08446243e-02  9.09355252e-01
  1.40680538e+00  1.42699408e+00  4.60804740e+00  4.66539723e+00
  5.33610122e+00  1.19984653e+01  1.20996581e+01  2.87492328e+01
  1.38667402e+02]
beta-Ag nocc = 2  HOMO = -2.51021154306195  LUMO = -0.171031884872989
   mo_energy = [-3.35858157e+01 -2.51021154e+00 -1.71031885e-01  6.16098014e-02
  1.40815460e-01  1.44753362e-01  9.75292567e-01  9.79805435e-01
  1.32490069e+00  3.23718162e+00  3.27021758e+00  7.19503564e+00
  1.12522049e+01  1.12711158e+01  3.35091218e+01  5.04986898e+01
  5.05290024e+01  1.64233293e+02]
beta-B1g nocc = 0
   mo_energy = [ 0.14475336  0.97529257  3.23718162 11.25220493 50.52900245]
beta-B2g nocc = 0
   mo_energy = [ 0.14161024  0.97860715  3.26123855 11.2660847  50.50621883]
beta-B3g nocc = 0
   mo_energy = [ 0.14161024  0.97860715  3.26123855 11.2660847  50.50621883]
beta-Au nocc = 0
   mo_energy = [ 1.41750774  4.65081659 12.08467398]
beta-B1u nocc = 0
   mo_energy = [-6.20223742e-01 -1.01197939e-01  5.83200578e-02  9.94182231e-01
  1.41066818e+00  1.41750774e+00  4.63828569e+00  4.65081659e+00
  5.43613148e+00  1.20662878e+01  1.20846740e+01  2.87707663e+01
  1.38646929e+02]
beta-B2u nocc = 1  HOMO = -1.54681106855498  LUMO = -0.105363723542988
   mo_energy = [-1.54681107e+00 -1.05363724e-01  4.25628081e-02  9.21498508e-01
  1.41233641e+00  1.42628110e+00  4.64143621e+00  4.66610099e+00
  5.36380774e+00  1.20708916e+01  1.21075486e+01  2.87720670e+01
  1.38675802e+02]
beta-B3u nocc = 1  HOMO = -1.54681106855498  LUMO = -0.105363723542987
   mo_energy = [-1.54681107e+00 -1.05363724e-01  4.25628081e-02  9.21498508e-01
  1.41233641e+00  1.42628110e+00  4.64143621e+00  4.66610099e+00
  5.36380774e+00  1.20708916e+01  1.21075486e+01  2.87720670e+01
  1.38675802e+02]
multiplicity <S^2> = 0.75266743  2S+1 = 2.0026657
E1 = -175.09373323543292  Ecoul = 47.28376570408545
cycle= 13 E= -127.809967531347  delta_E= -4.26e-14  |g|= 5.03e-09  |ddm|= 6.24e-10
    CPU time for cycle= 13      0.07 sec, wall time      0.02 sec
diis-norm(errvec)=7.11999e-09
Linear dependence found in DIIS error vectors.
diis-c [-1.01698965e-17 -1.15284461e-02  2.47075194e-01  2.51123703e-01
  2.56633939e-01  2.56457266e-01  1.72293026e-06 -9.78176443e-06
  2.46402541e-04]
alpha HOMO (B3u) = -1.60630016763939  LUMO (Ag) = -0.174282394380448
alpha irrep_nelec = [2, 0, 0, 0, 0, 1, 1, 1]
beta  irrep_nelec = [2, 0, 0, 0, 0, 0, 1, 1]
alpha-Ag nocc = 2  HOMO = -2.73640751822904  LUMO = -0.174282394380448
   mo_energy = [-3.36466171e+01 -2.73640752e+00 -1.74282394e-01  5.47653455e-02
  1.37374990e-01  1.45021775e-01  9.43074862e-01  9.75419916e-01
  1.29121640e+00  3.14783989e+00  3.22750046e+00  7.13207031e+00
  1.11065671e+01  1.12295728e+01  3.34643486e+01  5.04121161e+01
  5.05146287e+01  1.64219015e+02]
alpha-B1g nocc = 0
   mo_energy = [ 0.14502178  0.97541992  3.22750046 11.22957283 50.51462869]
alpha-B2g nocc = 0
   mo_energy = [ 0.13905672  0.95126741  3.16697605 11.13624928 50.43748573]
alpha-B3g nocc = 0
   mo_energy = [ 0.13905672  0.95126741  3.16697605 11.13624928 50.43748573]
alpha-Au nocc = 0
   mo_energy = [ 1.41422221  4.62990011 12.03621018]
alpha-B1u nocc = 1  HOMO = -1.74092750589775  LUMO = -0.10980288009905
   mo_energy = [-1.74092751e+00 -1.09802880e-01  3.19306514e-02  8.64671918e-01
  1.40435424e+00  1.41422221e+00  4.60049248e+00  4.62990011e+00
  5.23515307e+00  1.19859336e+01  1.20362102e+01  2.86486204e+01
  1.38611661e+02]
alpha-B2u nocc = 1  HOMO = -1.6063001676394  LUMO = -0.105878759940817
   mo_energy = [-1.60630017e+00 -1.05878760e-01  4.08446244e-02  9.09355253e-01
  1.40680538e+00  1.42699408e+00  4.60804740e+00  4.66539723e+00
  5.33610123e+00  1.19984653e+01  1.20996581e+01  2.87492328e+01
  1.38667402e+02]
alpha-B3u nocc = 1  HOMO = -1.60630016763939  LUMO = -0.105878759940818
   mo_energy = [-1.60630017e+00 -1.05878760e-01  4.08446244e-02  9.09355253e-01
  1.40680538e+00  1.42699408e+00  4.60804740e+00  4.66539723e+00
  5.33610123e+00  1.19984653e+01  1.20996581e+01  2.87492328e+01
  1.38667402e+02]
beta-Ag nocc = 2  HOMO = -2.51021153953969  LUMO = -0.171031884781868
   mo_energy = [-3.35858157e+01 -2.51021154e+00 -1.71031885e-01  6.16098016e-02
  1.40815460e-01  1.44753362e-01  9.75292568e-01  9.79805436e-01
  1.32490069e+00  3.23718162e+00  3.27021758e+00  7.19503564e+00
  1.12522049e+01  1.12711158e+01  3.35091218e+01  5.04986898e+01
  5.05290025e+01  1.64233293e+02]
beta-B1g nocc = 0
   mo_energy = [ 0.14475336  0.97529257  3.23718162 11.25220493 50.52900245]
beta-B2g nocc = 0
   mo_energy = [ 0.14161024  0.97860715  3.26123855 11.26608471 50.50621884]
beta-B3g nocc = 0
   mo_energy = [ 0.14161024  0.97860715  3.26123855 11.26608471 50.50621884]
beta-Au nocc = 0
   mo_energy = [ 1.41750774  4.6508166  12.08467398]
beta-B1u nocc = 0
   mo_energy = [-6.20223738e-01 -1.01197939e-01  5.83200582e-02  9.94182233e-01
  1.41066818e+00  1.41750774e+00  4.63828569e+00  4.65081660e+00
  5.43613148e+00  1.20662878e+01  1.20846740e+01  2.87707663e+01
  1.38646929e+02]
beta-B2u nocc = 1  HOMO = -1.54681106498538  LUMO = -0.105363723518717
   mo_energy = [-1.54681106e+00 -1.05363724e-01  4.25628082e-02  9.21498509e-01
  1.41233641e+00  1.42628110e+00  4.64143622e+00  4.66610099e+00
  5.36380775e+00  1.20708916e+01  1.21075486e+01  2.87720670e+01
  1.38675802e+02]
beta-B3u nocc = 1  HOMO = -1.54681106498537  LUMO = -0.105363723518719
   mo_energy = [-1.54681106e+00 -1.05363724e-01  4.25628082e-02  9.21498509e-01
  1.41233641e+00  1.42628110e+00  4.64143622e+00  4.66610099e+00
  5.36380775e+00  1.20708916e+01  1.21075486e+01  2.87720670e+01
  1.38675802e+02]
multiplicity <S^2> = 0.75266743  2S+1 = 2.0026657
E1 = -175.09373322162676  Ecoul = 47.28376569027918
cycle= 14 E= -127.809967531348  delta_E= -1.14e-13  |g|= 1.23e-09  |ddm|= 2.64e-09
    CPU time for cycle= 14      0.07 sec, wall time      0.02 sec
diis-norm(errvec)=1.73882e-09
Linear dependence found in DIIS error vectors.
diis-c [-8.97670228e-16 -1.32610170e-02  1.97416671e-01  2.01488668e-01
  2.04423441e-01  2.04319648e-01  2.05275203e-01 -5.71415651e-06
  3.43099375e-04]
alpha HOMO (B2u) = -1.60630016774473  LUMO (Ag) = -0.174282394391501
alpha irrep_nelec = [2, 0, 0, 0, 0, 1, 1, 1]
beta  irrep_nelec = [2, 0, 0, 0, 0, 0, 1, 1]
alpha-Ag nocc = 2  HOMO = -2.73640751837037  LUMO = -0.174282394391501
   mo_energy = [-3.36466171e+01 -2.73640752e+00 -1.74282394e-01  5.47653455e-02
  1.37374990e-01  1.45021775e-01  9.43074862e-01  9.75419916e-01
  1.29121639e+00  3.14783989e+00  3.22750046e+00  7.13207031e+00
  1.11065671e+01  1.12295728e+01  3.34643486e+01  5.04121161e+01
  5.05146287e+01  1.64219015e+02]
alpha-B1g nocc = 0
   mo_energy = [ 0.14502178  0.97541992  3.22750046 11.22957283 50.51462869]
alpha-B2g nocc = 0
   mo_energy = [ 0.13905672  0.95126741  3.16697605 11.13624928 50.43748573]
alpha-B3g nocc = 0
   mo_energy = [ 0.13905672  0.95126741  3.16697605 11.13624928 50.43748573]
alpha-Au nocc = 0
   mo_energy = [ 1.41422221  4.62990011 12.03621018]
alpha-B1u nocc = 1  HOMO = -1.74092750600519  LUMO = -0.109802880101106
   mo_energy = [-1.74092751e+00 -1.09802880e-01  3.19306514e-02  8.64671918e-01
  1.40435424e+00  1.41422221e+00  4.60049248e+00  4.62990011e+00
  5.23515307e+00  1.19859336e+01  1.20362102e+01  2.86486204e+01
  1.38611661e+02]
alpha-B2u nocc = 1  HOMO = -1.60630016774473  LUMO = -0.105878759942504
   mo_energy = [-1.60630017e+00 -1.05878760e-01  4.08446244e-02  9.09355253e-01
  1.40680538e+00  1.42699408e+00  4.60804740e+00  4.66539723e+00
  5.33610123e+00  1.19984653e+01  1.20996581e+01  2.87492328e+01
  1.38667402e+02]
alpha-B3u nocc = 1  HOMO = -1.60630016774473  LUMO = -0.105878759942506
   mo_energy = [-1.60630017e+00 -1.05878760e-01  4.08446244e-02  9.09355253e-01
  1.40680538e+00  1.42699408e+00  4.60804740e+00  4.66539723e+00
  5.33610123e+00  1.19984653e+01  1.20996581e+01  2.87492328e+01
  1.38667402e+02]
beta-Ag nocc = 2  HOMO = -2.51021153975688  LUMO = -0.171031884787672
   mo_energy = [-3.35858157e+01 -2.51021154e+00 -1.71031885e-01  6.16098016e-02
  1.40815460e-01  1.44753362e-01  9.75292568e-01  9.79805436e-01
  1.32490069e+00  3.23718162e+00  3.27021758e+00  7.19503564e+00
  1.12522049e+01  1.12711158e+01  3.35091218e+01  5.04986898e+01
  5.05290025e+01  1.64233293e+02]
beta-B1g nocc = 0
   mo_energy = [ 0.14475336  0.97529257  3.23718162 11.25220493 50.52900245]
beta-B2g nocc = 0
   mo_energy = [ 0.14161024  0.97860715  3.26123855 11.26608471 50.50621884]
beta-B3g nocc = 0
   mo_energy = [ 0.14161024  0.97860715  3.26123855 11.26608471 50.50621884]
beta-Au nocc = 0
   mo_energy = [ 1.41750774  4.6508166  12.08467398]
beta-B1u nocc = 0
   mo_energy = [-6.20223738e-01 -1.01197939e-01  5.83200582e-02  9.94182233e-01
  1.41066818e+00  1.41750774e+00  4.63828569e+00  4.65081660e+00
  5.43613148e+00  1.20662878e+01  1.20846740e+01  2.87707663e+01
  1.38646929e+02]
beta-B2u nocc = 1  HOMO = -1.54681106517723  LUMO = -0.10536372352079
   mo_energy = [-1.54681107e+00 -1.05363724e-01  4.25628082e-02  9.21498509e-01
  1.41233641e+00  1.42628110e+00  4.64143622e+00  4.66610099e+00
  5.36380775e+00  1.20708916e+01  1.21075486e+01  2.87720670e+01
  1.38675802e+02]
beta-B3u nocc = 1  HOMO = -1.54681106517724  LUMO = -0.105363723520789
   mo_energy = [-1.54681107e+00 -1.05363724e-01  4.25628082e-02  9.21498509e-01
  1.41233641e+00  1.42628110e+00  4.64143622e+00  4.66610099e+00
  5.36380775e+00  1.20708916e+01  1.21075486e+01  2.87720670e+01
  1.38675802e+02]
multiplicity <S^2> = 0.75266743  2S+1 = 2.0026657
[...]
  1.29121639e+00  3.14783989e+00  3.22750046e+00  7.13207031e+00
  1.11065671e+01  1.12295728e+01  3.34643486e+01  5.04121161e+01
  5.05146287e+01  1.64219015e+02]
alpha-B1g nocc = 0
   mo_energy = [ 0.14502178  0.97541992  3.22750046 11.22957283 50.51462869]
alpha-B2g nocc = 0
   mo_energy = [ 0.13905672  0.95126741  3.16697605 11.13624927 50.43748573]
alpha-B3g nocc = 0
   mo_energy = [ 0.13905672  0.95126741  3.16697605 11.13624927 50.43748573]
alpha-Au nocc = 0
   mo_energy = [ 1.41422221  4.62990011 12.03621018]
alpha-B1u nocc = 1  HOMO = -1.7409275062869  LUMO = -0.109802880103951
   mo_energy = [-1.74092751e+00 -1.09802880e-01  3.19306514e-02  8.64671918e-01
  1.40435424e+00  1.41422221e+00  4.60049248e+00  4.62990011e+00
  5.23515307e+00  1.19859336e+01  1.20362102e+01  2.86486204e+01
  1.38611661e+02]
alpha-B2u nocc = 1  HOMO = -1.60630016797368  LUMO = -0.105878759945576
   mo_energy = [-1.60630017e+00 -1.05878760e-01  4.08446244e-02  9.09355253e-01
  1.40680538e+00  1.42699408e+00  4.60804740e+00  4.66539723e+00
  5.33610122e+00  1.19984653e+01  1.20996581e+01  2.87492328e+01
  1.38667402e+02]
alpha-B3u nocc = 1  HOMO = -1.60630016797369  LUMO = -0.10587875994558
   mo_energy = [-1.60630017e+00 -1.05878760e-01  4.08446244e-02  9.09355253e-01
  1.40680538e+00  1.42699408e+00  4.60804740e+00  4.66539723e+00
  5.33610122e+00  1.19984653e+01  1.20996581e+01  2.87492328e+01
  1.38667402e+02]
beta-Ag nocc = 2  HOMO = -2.51021154053661  LUMO = -0.171031884799615
   mo_energy = [-3.35858157e+01 -2.51021154e+00 -1.71031885e-01  6.16098016e-02
  1.40815460e-01  1.44753362e-01  9.75292568e-01  9.79805436e-01
  1.32490069e+00  3.23718162e+00  3.27021758e+00  7.19503564e+00
  1.12522049e+01  1.12711158e+01  3.35091218e+01  5.04986898e+01
  5.05290025e+01  1.64233293e+02]
beta-B1g nocc = 0
   mo_energy = [ 0.14475336  0.97529257  3.23718162 11.25220493 50.52900245]
beta-B2g nocc = 0
   mo_energy = [ 0.14161024  0.97860715  3.26123855 11.26608471 50.50621884]
beta-B3g nocc = 0
   mo_energy = [ 0.14161024  0.97860715  3.26123855 11.26608471 50.50621884]
beta-Au nocc = 0
   mo_energy = [ 1.41750774  4.6508166  12.08467398]
beta-B1u nocc = 0
   mo_energy = [-6.20223739e-01 -1.01197939e-01  5.83200581e-02  9.94182233e-01
  1.41066818e+00  1.41750774e+00  4.63828569e+00  4.65081660e+00
  5.43613148e+00  1.20662878e+01  1.20846740e+01  2.87707663e+01
  1.38646929e+02]
beta-B2u nocc = 1  HOMO = -1.54681106588183  LUMO = -0.105363723527416
   mo_energy = [-1.54681107e+00 -1.05363724e-01  4.25628081e-02  9.21498509e-01
  1.41233641e+00  1.42628110e+00  4.64143622e+00  4.66610099e+00
  5.36380775e+00  1.20708916e+01  1.21075486e+01  2.87720670e+01
  1.38675802e+02]
beta-B3u nocc = 1  HOMO = -1.54681106588183  LUMO = -0.10536372352742
   mo_energy = [-1.54681107e+00 -1.05363724e-01  4.25628081e-02  9.21498509e-01
  1.41233641e+00  1.42628110e+00  4.64143622e+00  4.66610099e+00
  5.36380775e+00  1.20708916e+01  1.21075486e+01  2.87720670e+01
  1.38675802e+02]
multiplicity <S^2> = 0.75266743  2S+1 = 2.0026657
E1 = -175.0937332242459  Ecoul = 47.283765692898456
cycle= 167 E= -127.809967531347  delta_E= -2.84e-14  |g|= 1.29e-13  |ddm|= 9.99e-14
    CPU time for cycle= 167      0.06 sec, wall time      0.02 sec
diis-norm(errvec)=2.2917e-13
Linear dependence found in DIIS error vectors.
diis-c [-2.89052492e-16  1.25000000e-01  1.25000000e-01  1.25000000e-01
  1.25000000e-01  1.25000000e-01  1.25000000e-01  1.25000000e-01
  1.25000000e-01]
alpha HOMO (B2u) = -1.60630016797368  LUMO (Ag) = -0.174282394417714
alpha irrep_nelec = [2, 0, 0, 0, 0, 1, 1, 1]
beta  irrep_nelec = [2, 0, 0, 0, 0, 0, 1, 1]
alpha-Ag nocc = 2  HOMO = -2.73640751875815  LUMO = -0.174282394417714
   mo_energy = [-3.36466171e+01 -2.73640752e+00 -1.74282394e-01  5.47653455e-02
  1.37374990e-01  1.45021775e-01  9.43074862e-01  9.75419915e-01
  1.29121639e+00  3.14783989e+00  3.22750046e+00  7.13207031e+00
  1.11065671e+01  1.12295728e+01  3.34643486e+01  5.04121161e+01
  5.05146287e+01  1.64219015e+02]
alpha-B1g nocc = 0
   mo_energy = [ 0.14502178  0.97541992  3.22750046 11.22957283 50.51462869]
alpha-B2g nocc = 0
   mo_energy = [ 0.13905672  0.95126741  3.16697605 11.13624927 50.43748573]
alpha-B3g nocc = 0
   mo_energy = [ 0.13905672  0.95126741  3.16697605 11.13624927 50.43748573]
alpha-Au nocc = 0
   mo_energy = [ 1.41422221  4.62990011 12.03621018]
alpha-B1u nocc = 1  HOMO = -1.7409275062869  LUMO = -0.10980288010395
   mo_energy = [-1.74092751e+00 -1.09802880e-01  3.19306514e-02  8.64671918e-01
  1.40435424e+00  1.41422221e+00  4.60049248e+00  4.62990011e+00
  5.23515307e+00  1.19859336e+01  1.20362102e+01  2.86486204e+01
  1.38611661e+02]
alpha-B2u nocc = 1  HOMO = -1.60630016797368  LUMO = -0.105878759945579
   mo_energy = [-1.60630017e+00 -1.05878760e-01  4.08446244e-02  9.09355253e-01
  1.40680538e+00  1.42699408e+00  4.60804740e+00  4.66539723e+00
  5.33610122e+00  1.19984653e+01  1.20996581e+01  2.87492328e+01
  1.38667402e+02]
alpha-B3u nocc = 1  HOMO = -1.60630016797369  LUMO = -0.10587875994558
   mo_energy = [-1.60630017e+00 -1.05878760e-01  4.08446244e-02  9.09355253e-01
  1.40680538e+00  1.42699408e+00  4.60804740e+00  4.66539723e+00
  5.33610122e+00  1.19984653e+01  1.20996581e+01  2.87492328e+01
  1.38667402e+02]
beta-Ag nocc = 2  HOMO = -2.51021154053661  LUMO = -0.171031884799594
   mo_energy = [-3.35858157e+01 -2.51021154e+00 -1.71031885e-01  6.16098016e-02
  1.40815460e-01  1.44753362e-01  9.75292568e-01  9.79805436e-01
  1.32490069e+00  3.23718162e+00  3.27021758e+00  7.19503564e+00
  1.12522049e+01  1.12711158e+01  3.35091218e+01  5.04986898e+01
  5.05290025e+01  1.64233293e+02]
beta-B1g nocc = 0
   mo_energy = [ 0.14475336  0.97529257  3.23718162 11.25220493 50.52900245]
beta-B2g nocc = 0
   mo_energy = [ 0.14161024  0.97860715  3.26123855 11.26608471 50.50621884]
beta-B3g nocc = 0
   mo_energy = [ 0.14161024  0.97860715  3.26123855 11.26608471 50.50621884]
beta-Au nocc = 0
   mo_energy = [ 1.41750774  4.6508166  12.08467398]
beta-B1u nocc = 0
   mo_energy = [-6.20223739e-01 -1.01197939e-01  5.83200581e-02  9.94182233e-01
  1.41066818e+00  1.41750774e+00  4.63828569e+00  4.65081660e+00
  5.43613148e+00  1.20662878e+01  1.20846740e+01  2.87707663e+01
  1.38646929e+02]
beta-B2u nocc = 1  HOMO = -1.54681106588183  LUMO = -0.105363723527417
   mo_energy = [-1.54681107e+00 -1.05363724e-01  4.25628081e-02  9.21498509e-01
  1.41233641e+00  1.42628110e+00  4.64143622e+00  4.66610099e+00
  5.36380775e+00  1.20708916e+01  1.21075486e+01  2.87720670e+01
  1.38675802e+02]
beta-B3u nocc = 1  HOMO = -1.54681106588183  LUMO = -0.105363723527419
   mo_energy = [-1.54681107e+00 -1.05363724e-01  4.25628081e-02  9.21498509e-01
  1.41233641e+00  1.42628110e+00  4.64143622e+00  4.66610099e+00
  5.36380775e+00  1.20708916e+01  1.21075486e+01  2.87720670e+01
  1.38675802e+02]
multiplicity <S^2> = 0.75266743  2S+1 = 2.0026657
E1 = -175.09373322424608  Ecoul = 47.28376569289848
cycle= 168 E= -127.809967531348  delta_E= -1.56e-13  |g|= 1.19e-13  |ddm|= 9.73e-14
    CPU time for cycle= 168      0.07 sec, wall time      0.02 sec
diis-norm(errvec)=2.21023e-13
Linear dependence found in DIIS error vectors.
diis-c [-2.89052492e-16  1.25000000e-01  1.25000000e-01  1.25000000e-01
  1.25000000e-01  1.25000000e-01  1.25000000e-01  1.25000000e-01
  1.25000000e-01]
alpha HOMO (B2u) = -1.60630016797368  LUMO (Ag) = -0.174282394417723
alpha irrep_nelec = [2, 0, 0, 0, 0, 1, 1, 1]
beta  irrep_nelec = [2, 0, 0, 0, 0, 0, 1, 1]
alpha-Ag nocc = 2  HOMO = -2.73640751875816  LUMO = -0.174282394417723
   mo_energy = [-3.36466171e+01 -2.73640752e+00 -1.74282394e-01  5.47653455e-02
  1.37374990e-01  1.45021775e-01  9.43074862e-01  9.75419915e-01
  1.29121639e+00  3.14783989e+00  3.22750046e+00  7.13207031e+00
  1.11065671e+01  1.12295728e+01  3.34643486e+01  5.04121161e+01
  5.05146287e+01  1.64219015e+02]
alpha-B1g nocc = 0
   mo_energy = [ 0.14502178  0.97541992  3.22750046 11.22957283 50.51462869]
alpha-B2g nocc = 0
   mo_energy = [ 0.13905672  0.95126741  3.16697605 11.13624927 50.43748573]
alpha-B3g nocc = 0
   mo_energy = [ 0.13905672  0.95126741  3.16697605 11.13624927 50.43748573]
alpha-Au nocc = 0
   mo_energy = [ 1.41422221  4.62990011 12.03621018]
alpha-B1u nocc = 1  HOMO = -1.7409275062869  LUMO = -0.109802880103949
   mo_energy = [-1.74092751e+00 -1.09802880e-01  3.19306514e-02  8.64671918e-01
  1.40435424e+00  1.41422221e+00  4.60049248e+00  4.62990011e+00
  5.23515307e+00  1.19859336e+01  1.20362102e+01  2.86486204e+01
  1.38611661e+02]
alpha-B2u nocc = 1  HOMO = -1.60630016797368  LUMO = -0.105878759945579
   mo_energy = [-1.60630017e+00 -1.05878760e-01  4.08446244e-02  9.09355253e-01
  1.40680538e+00  1.42699408e+00  4.60804740e+00  4.66539723e+00
  5.33610122e+00  1.19984653e+01  1.20996581e+01  2.87492328e+01
  1.38667402e+02]
alpha-B3u nocc = 1  HOMO = -1.60630016797369  LUMO = -0.105878759945579
   mo_energy = [-1.60630017e+00 -1.05878760e-01  4.08446244e-02  9.09355253e-01
  1.40680538e+00  1.42699408e+00  4.60804740e+00  4.66539723e+00
  5.33610122e+00  1.19984653e+01  1.20996581e+01  2.87492328e+01
  1.38667402e+02]
beta-Ag nocc = 2  HOMO = -2.5102115405366  LUMO = -0.171031884799614
   mo_energy = [-3.35858157e+01 -2.51021154e+00 -1.71031885e-01  6.16098016e-02
  1.40815460e-01  1.44753362e-01  9.75292568e-01  9.79805436e-01
  1.32490069e+00  3.23718162e+00  3.27021758e+00  7.19503564e+00
  1.12522049e+01  1.12711158e+01  3.35091218e+01  5.04986898e+01
  5.05290025e+01  1.64233293e+02]
beta-B1g nocc = 0
   mo_energy = [ 0.14475336  0.97529257  3.23718162 11.25220493 50.52900245]
beta-B2g nocc = 0
   mo_energy = [ 0.14161024  0.97860715  3.26123855 11.26608471 50.50621884]
beta-B3g nocc = 0
   mo_energy = [ 0.14161024  0.97860715  3.26123855 11.26608471 50.50621884]
beta-Au nocc = 0
   mo_energy = [ 1.41750774  4.6508166  12.08467398]
beta-B1u nocc = 0
   mo_energy = [-6.20223739e-01 -1.01197939e-01  5.83200581e-02  9.94182233e-01
  1.41066818e+00  1.41750774e+00  4.63828569e+00  4.65081660e+00
  5.43613148e+00  1.20662878e+01  1.20846740e+01  2.87707663e+01
  1.38646929e+02]
beta-B2u nocc = 1  HOMO = -1.54681106588183  LUMO = -0.105363723527416
   mo_energy = [-1.54681107e+00 -1.05363724e-01  4.25628081e-02  9.21498509e-01
  1.41233641e+00  1.42628110e+00  4.64143622e+00  4.66610099e+00
  5.36380775e+00  1.20708916e+01  1.21075486e+01  2.87720670e+01
  1.38675802e+02]
beta-B3u nocc = 1  HOMO = -1.54681106588182  LUMO = -0.105363723527415
   mo_energy = [-1.54681107e+00 -1.05363724e-01  4.25628081e-02  9.21498509e-01
  1.41233641e+00  1.42628110e+00  4.64143622e+00  4.66610099e+00
  5.36380775e+00  1.20708916e+01  1.21075486e+01  2.87720670e+01
  1.38675802e+02]
multiplicity <S^2> = 0.75266743  2S+1 = 2.0026657
E1 = -175.09373322424582  Ecoul = 47.283765692898385
cycle= 169 E= -127.809967531347  delta_E= 1.71e-13  |g|= 9.63e-14  |ddm|= 1.24e-13
    CPU time for cycle= 169      0.07 sec, wall time      0.02 sec
diis-norm(errvec)=2.71111e-13
Linear dependence found in DIIS error vectors.
diis-c [-2.89052492e-16  1.25000000e-01  1.25000000e-01  1.25000000e-01
  1.25000000e-01  1.25000000e-01  1.25000000e-01  1.25000000e-01
  1.25000000e-01]
alpha HOMO (B2u) = -1.60630016797368  LUMO (Ag) = -0.174282394417717
alpha irrep_nelec = [2, 0, 0, 0, 0, 1, 1, 1]
beta  irrep_nelec = [2, 0, 0, 0, 0, 0, 1, 1]
alpha-Ag nocc = 2  HOMO = -2.73640751875817  LUMO = -0.174282394417717
   mo_energy = [-3.36466171e+01 -2.73640752e+00 -1.74282394e-01  5.47653455e-02
  1.37374990e-01  1.45021775e-01  9.43074862e-01  9.75419915e-01
  1.29121639e+00  3.14783989e+00  3.22750046e+00  7.13207031e+00
  1.11065671e+01  1.12295728e+01  3.34643486e+01  5.04121161e+01
  5.05146287e+01  1.64219015e+02]
alpha-B1g nocc = 0
   mo_energy = [ 0.14502178  0.97541992  3.22750046 11.22957283 50.51462869]
alpha-B2g nocc = 0
   mo_energy = [ 0.13905672  0.95126741  3.16697605 11.13624927 50.43748573]
alpha-B3g nocc = 0
   mo_energy = [ 0.13905672  0.95126741  3.16697605 11.13624927 50.43748573]
alpha-Au nocc = 0
   mo_energy = [ 1.41422221  4.62990011 12.03621018]
alpha-B1u nocc = 1  HOMO = -1.7409275062869  LUMO = -0.10980288010395
   mo_energy = [-1.74092751e+00 -1.09802880e-01  3.19306514e-02  8.64671918e-01
  1.40435424e+00  1.41422221e+00  4.60049248e+00  4.62990011e+00
  5.23515307e+00  1.19859336e+01  1.20362102e+01  2.86486204e+01
  1.38611661e+02]
alpha-B2u nocc = 1  HOMO = -1.60630016797368  LUMO = -0.105878759945576
   mo_energy = [-1.60630017e+00 -1.05878760e-01  4.08446244e-02  9.09355253e-01
  1.40680538e+00  1.42699408e+00  4.60804740e+00  4.66539723e+00
  5.33610122e+00  1.19984653e+01  1.20996581e+01  2.87492328e+01
  1.38667402e+02]
alpha-B3u nocc = 1  HOMO = -1.60630016797369  LUMO = -0.105878759945577
   mo_energy = [-1.60630017e+00 -1.05878760e-01  4.08446244e-02  9.09355253e-01
  1.40680538e+00  1.42699408e+00  4.60804740e+00  4.66539723e+00
  5.33610122e+00  1.19984653e+01  1.20996581e+01  2.87492328e+01
  1.38667402e+02]
beta-Ag nocc = 2  HOMO = -2.5102115405366  LUMO = -0.171031884799612
   mo_energy = [-3.35858157e+01 -2.51021154e+00 -1.71031885e-01  6.16098016e-02
  1.40815460e-01  1.44753362e-01  9.75292568e-01  9.79805436e-01
  1.32490069e+00  3.23718162e+00  3.27021758e+00  7.19503564e+00
  1.12522049e+01  1.12711158e+01  3.35091218e+01  5.04986898e+01
  5.05290025e+01  1.64233293e+02]
beta-B1g nocc = 0
   mo_energy = [ 0.14475336  0.97529257  3.23718162 11.25220493 50.52900245]
beta-B2g nocc = 0
   mo_energy = [ 0.14161024  0.97860715  3.26123855 11.26608471 50.50621884]
beta-B3g nocc = 0
   mo_energy = [ 0.14161024  0.97860715  3.26123855 11.26608471 50.50621884]
beta-Au nocc = 0
   mo_energy = [ 1.41750774  4.6508166  12.08467398]
beta-B1u nocc = 0
   mo_energy = [-6.20223739e-01 -1.01197939e-01  5.83200581e-02  9.94182233e-01
  1.41066818e+00  1.41750774e+00  4.63828569e+00  4.65081660e+00
  5.43613148e+00  1.20662878e+01  1.20846740e+01  2.87707663e+01
  1.38646929e+02]
beta-B2u nocc = 1  HOMO = -1.54681106588183  LUMO = -0.105363723527417
   mo_energy = [-1.54681107e+00 -1.05363724e-01  4.25628081e-02  9.21498509e-01
  1.41233641e+00  1.42628110e+00  4.64143622e+00  4.66610099e+00
  5.36380775e+00  1.20708916e+01  1.21075486e+01  2.87720670e+01
  1.38675802e+02]
beta-B3u nocc = 1  HOMO = -1.54681106588183  LUMO = -0.105363723527416
   mo_energy = [-1.54681107e+00 -1.05363724e-01  4.25628081e-02  9.21498509e-01
  1.41233641e+00  1.42628110e+00  4.64143622e+00  4.66610099e+00
  5.36380775e+00  1.20708916e+01  1.21075486e+01  2.87720670e+01
  1.38675802e+02]
multiplicity <S^2> = 0.75266743  2S+1 = 2.0026657
E1 = -175.09373322424582  Ecoul = 47.283765692898385
cycle= 170 E= -127.809967531347  delta_E=    0  |g|= 1.52e-13  |ddm|= 7.77e-15
    CPU time for cycle= 170      0.08 sec, wall time      0.02 sec
alpha HOMO (B2u) = -1.60630016797368  LUMO (Ag) = -0.174282394417716
alpha irrep_nelec = [2, 0, 0, 0, 0, 1, 1, 1]
beta  irrep_nelec = [2, 0, 0, 0, 0, 0, 1, 1]
alpha-Ag nocc = 2  HOMO = -2.73640751875816  LUMO = -0.174282394417716
   mo_energy = [-3.36466171e+01 -2.73640752e+00 -1.74282394e-01  5.47653455e-02
  1.37374990e-01  1.45021775e-01  9.43074862e-01  9.75419915e-01
  1.29121639e+00  3.14783989e+00  3.22750046e+00  7.13207031e+00
  1.11065671e+01  1.12295728e+01  3.34643486e+01  5.04121161e+01
  5.05146287e+01  1.64219015e+02]
alpha-B1g nocc = 0
   mo_energy = [ 0.14502178  0.97541992  3.22750046 11.22957283 50.51462869]
alpha-B2g nocc = 0
   mo_energy = [ 0.13905672  0.95126741  3.16697605 11.13624927 50.43748573]
alpha-B3g nocc = 0
   mo_energy = [ 0.13905672  0.95126741  3.16697605 11.13624927 50.43748573]
alpha-Au nocc = 0
   mo_energy = [ 1.41422221  4.62990011 12.03621018]
alpha-B1u nocc = 1  HOMO = -1.74092750628691  LUMO = -0.109802880103952
   mo_energy = [-1.74092751e+00 -1.09802880e-01  3.19306514e-02  8.64671918e-01
  1.40435424e+00  1.41422221e+00  4.60049248e+00  4.62990011e+00
  5.23515307e+00  1.19859336e+01  1.20362102e+01  2.86486204e+01
  1.38611661e+02]
alpha-B2u nocc = 1  HOMO = -1.60630016797368  LUMO = -0.105878759945578
   mo_energy = [-1.60630017e+00 -1.05878760e-01  4.08446244e-02  9.09355253e-01
  1.40680538e+00  1.42699408e+00  4.60804740e+00  4.66539723e+00
  5.33610122e+00  1.19984653e+01  1.20996581e+01  2.87492328e+01
  1.38667402e+02]
alpha-B3u nocc = 1  HOMO = -1.60630016797369  LUMO = -0.10587875994558
   mo_energy = [-1.60630017e+00 -1.05878760e-01  4.08446244e-02  9.09355253e-01
  1.40680538e+00  1.42699408e+00  4.60804740e+00  4.66539723e+00
  5.33610122e+00  1.19984653e+01  1.20996581e+01  2.87492328e+01
  1.38667402e+02]
beta-Ag nocc = 2  HOMO = -2.51021154053661  LUMO = -0.171031884799599
   mo_energy = [-3.35858157e+01 -2.51021154e+00 -1.71031885e-01  6.16098016e-02
  1.40815460e-01  1.44753362e-01  9.75292568e-01  9.79805436e-01
  1.32490069e+00  3.23718162e+00  3.27021758e+00  7.19503564e+00
  1.12522049e+01  1.12711158e+01  3.35091218e+01  5.04986898e+01
  5.05290025e+01  1.64233293e+02]
beta-B1g nocc = 0
   mo_energy = [ 0.14475336  0.97529257  3.23718162 11.25220493 50.52900245]
beta-B2g nocc = 0
   mo_energy = [ 0.14161024  0.97860715  3.26123855 11.26608471 50.50621884]
beta-B3g nocc = 0
   mo_energy = [ 0.14161024  0.97860715  3.26123855 11.26608471 50.50621884]
beta-Au nocc = 0
   mo_energy = [ 1.41750774  4.6508166  12.08467398]
beta-B1u nocc = 0
   mo_energy = [-6.20223739e-01 -1.01197939e-01  5.83200581e-02  9.94182233e-01
  1.41066818e+00  1.41750774e+00  4.63828569e+00  4.65081660e+00
  5.43613148e+00  1.20662878e+01  1.20846740e+01  2.87707663e+01
  1.38646929e+02]
beta-B2u nocc = 1  HOMO = -1.54681106588183  LUMO = -0.105363723527415
   mo_energy = [-1.54681107e+00 -1.05363724e-01  4.25628081e-02  9.21498509e-01
  1.41233641e+00  1.42628110e+00  4.64143622e+00  4.66610099e+00
  5.36380775e+00  1.20708916e+01  1.21075486e+01  2.87720670e+01
  1.38675802e+02]
beta-B3u nocc = 1  HOMO = -1.54681106588183  LUMO = -0.105363723527419
   mo_energy = [-1.54681107e+00 -1.05363724e-01  4.25628081e-02  9.21498509e-01
  1.41233641e+00  1.42628110e+00  4.64143622e+00  4.66610099e+00
  5.36380775e+00  1.20708916e+01  1.21075486e+01  2.87720670e+01
  1.38675802e+02]
multiplicity <S^2> = 0.75266743  2S+1 = 2.0026657
E1 = -175.0937332242459  Ecoul = 47.28376569289844
Extra cycle  E= -127.809967531347  delta_E= -2.84e-14  |g|= 2.2e-13  |ddm|= 7.77e-15
    CPU time for scf_cycle     11.93 sec, wall time      3.07 sec
    CPU time for SCF     11.94 sec, wall time      3.07 sec
converged SCF energy = -127.809967531347  <S^2> = 0.75266743  2S+1 = 2.0026657
irreps of each MO ['Ag' 'Ag' 'B1u' 'B2u' 'B3u' 'Ag' 'B1u' 'B2u' 'B3u' 'B1u' 'B2u' 'B3u' 'Ag'
 'Ag' 'B2g' 'B3g' 'Ag' 'B1g' 'B1u' 'B2u' 'B3u' 'Ag' 'B2g' 'B3g' 'Ag' 'B1g'
 'Ag' 'B1u' 'B2u' 'B3u' 'Au' 'B1u' 'B2u' 'B3u' 'Ag' 'B2g' 'B3g' 'Ag' 'B1g'
 'B1u' 'B2u' 'B3u' 'Au' 'B1u' 'B2u' 'B3u' 'B1u' 'B2u' 'B3u' 'Ag' 'Ag'
 'B2g' 'B3g' 'Ag' 'B1g' 'B1u' 'B2u' 'B3u' 'Au' 'B1u' 'B2u' 'B3u' 'B1u'
 'B2u' 'B3u' 'Ag' 'Ag' 'B2g' 'B3g' 'Ag' 'B1g' 'B1u' 'B2u' 'B3u' 'Ag']
irreps of each MO ['Ag' 'Ag' 'B2u' 'B3u' 'B1u' 'Ag' 'B2u' 'B3u' 'B1u' 'B2u' 'B3u' 'B1u' 'Ag'
 'Ag' 'B2g' 'B3g' 'Ag' 'B1g' 'B2u' 'B3u' 'Ag' 'B1g' 'B2g' 'B3g' 'Ag' 'B1u'
 'Ag' 'B1u' 'B2u' 'B3u' 'Au' 'B1u' 'B2u' 'B3u' 'Ag' 'B1g' 'B2g' 'B3g' 'Ag'
 'B1u' 'B2u' 'B3u' 'Au' 'B1u' 'B2u' 'B3u' 'B2u' 'B3u' 'B1u' 'Ag' 'Ag'
 'B1g' 'B2g' 'B3g' 'Ag' 'B1u' 'B2u' 'B3u' 'Au' 'B1u' 'B2u' 'B3u' 'B1u'
 'B2u' 'B3u' 'Ag' 'Ag' 'B2g' 'B3g' 'Ag' 'B1g' 'B1u' 'B2u' 'B3u' 'Ag']
irreps of each MO ['Ag' 'Ag' 'B3u' 'B2u' 'B1u' 'Ag' 'B3u' 'B2u' 'B1u' 'B1u' 'B2u' 'B3u' 'Ag'
 'Ag' 'B2g' 'B3g' 'B1g' 'Ag' 'B1u' 'B3u' 'B2u' 'Ag' 'B3g' 'B2g' 'B1g' 'Ag'
 'Ag' 'B1u' 'B3u' 'B2u' 'Au' 'B1u' 'B2u' 'B3u' 'Ag' 'B2g' 'B3g' 'B1g' 'Ag'
 'B1u' 'B2u' 'B3u' 'B1u' 'Au' 'B3u' 'B2u' 'B1u' 'B3u' 'B2u' 'Ag' 'Ag'
 'B2g' 'B3g' 'Ag' 'B1g' 'B1u' 'B3u' 'B2u' 'B1u' 'Au' 'B3u' 'B2u' 'B1u'
 'B3u' 'B2u' 'Ag' 'Ag' 'B2g' 'B3g' 'Ag' 'B1g' 'B1u' 'B2u' 'B3u' 'Ag']
