**********************************************************************
                          MRCC program system
 **********************************************************************

                              Written by
     Mihaly Kallay, Peter R. Nagy, David Mester, Laszlo Gyevi-Nagy,
        Jozsef Csoka, P. Bernat Szabo, Zoltan Rolik, Gyula Samu,
     Jozsef Csontos, Bence Hegely, Adam Ganyecz, Istvan Ladjanszki,
       Lorant Szegedy, Bence Ladoczki, Klara Petrov, Mate Farkas,
                    Pal D. Mezei, and Reka A. Horvath

        Department of Physical Chemistry and Materials Science
            Budapest University of Technology and Economics
                  Budapest P.O.Box 91, H-1521 Hungary

                              www.mrcc.hu

                     Release date: August 28, 2023

 ************************ 2025-02-16 13:10:30 *************************
 Executing minp...

 Reading input from MINP...

 Input file:

basis=aCVQZ-EMSL
iface=cfour
uncontract=off
calc=CC(5)
ccprog=mrcc
mem=1950GB
core=corr
itol=18
scftol=13
cctol=5
ccmaxit=999
scfmaxit=9999
scfiguess=ao
scftype=UHF
#rohftype=semicanonical
rest=2
charge=+0
mult=3
refdet=serialno
1-3
4,5

symm=2
occ=2,0,0,0,0,1,1,1/2,0,0,0,0,0,0,1
geom
O

#Li 1 R
#R=3.065

#unit=angstroms

tprint=0.01
verbosity=3
#nstate=4


 Checking keyword combinations...

 Keywords:

 active=none
 agrid=ld0006-ld0590
 agrid_pssp=ld0006-ld0194
 agrid_pssp_sm=ld0006-ld0074
 basis=acvqz-emsl
 basis_sm=none
 basopt=off
 bfbasis=none
 bfgsmem=10
 bfgstol=1.0d-3
 boysalg=jacobi
 bpcompo=0.985
 bpcompv=0.98
 bpdfo=0.985
 bpocc=0.985
 bppdo=0.985
 bppdv=0.98
 bpedo=0.985
 bpedv=0.98
 calc=cc(5)
 ccmaxit=999
 ccprog=mrcc
 ccsdalg=disk
 ccsdmkl=seq
 ccsdrest=off
 ccsdthreads=2
 cctol=5
 charge=+0
 cialg=disk
 ciguess=off
 cmpgrp=auto
 comprest=off
 coord_sys=ric
 core=corr
 corembed=off
 csapprox=off
 cvs=off
 dboc=off
 delocsomofact=
 dendec=cholesky
 dens=0
 denscorr=0
 dfalg=lineq
 dfbasis_cab=none
 dfbasis_cor=none
 dfbasis_scf=none
 dfbasis_scf_sm=none
 dfintran=ovirt
 dft=off
 dhexc=adc(2)
 diag=david
 docc=
 domrad=10.d0
 drpaalg=fit
 dual=off
 dual_df=off
 ecp=auto
 edisp=off
 edisp_embed=off
 embed=off
 epairestfact=off
 epairscale=1.d0
 etemp=300
 epert=none
 eps=
 espcharge=off
 excrad=0.d0
 excrad_fin=0.000000000D+00
 fitting=coulomb
 fmm=off
 fmmord=8
 fnonorb=
 freq=off
 gamma=1.d0
 gauss=spher
 geom=zmat
 gopt=off
 ghost=none
 gtol=7
 grdens=off
 grid=auto
 grid_sm=auto
 gridbatch_cos=2000
 grtol=10
 guido_ct=off
 hamilton=dc
 iface=cfour
 intalg=auto
 ip_ea=off
 itol=18
 laptol=1.d-2
 lccoporder=trffirst
 lcorthr=normal
 lccrest=off
 ldfgrad_tol=8
 lmp2dens=on
 lnoepso=0.d0
 lnoepsv=1e-6
 localcc=off
 localcorrsymm=off
 locintrf=disk
 mact=
 maxact=off
 maxdim=200
 maxex=0
 maxmicroit=100
 mcscfiguess=hf
 mem=1950gb
 mmprog=
 molden=on
 mpitasks=1
 mulmet=0
 mult=3
 nab=off
 nacto=0
 nactv=0
 naf_amp=3.16d-3
 naf_cor=off
 naf_f12=off
 naf_scf=off
 nafalg=albe
 nafdens=off
 naftyp=
 nchol=auto
 ndeps=1e-3
 nstate=1
 nsing=0
 nto=off
 ntrip=0
 num_grad=off
 occ=2,0,0,0,0,1,1,1/2,0,0,0,0,0,0,1
 occri=off
 oniom=off
 oniom_eechg=off
 oniom_pcm=off
 oniom_qcorr=off
 optalg=
 optmaxit=50
 optetol=1e-6
 optex=0
 optgtol=1e-4
 optstol=1e-3
 orblocc=off
 orbloce=off
 orbloco=off
 orblocv=off
 orblocguess=cholesky
 osveps=1e-3
 ovirt=off
 ovltol=1e-7
 ovosnorb=80.0
 pao_subsys_tol=1e-3
 pcm=off
 popul=off
 pressure=100000
 pssp=off
 ptfreq=0.0
 ptthreads=2
 qmreg=
 qmmm=off
 qro=off
 qscf=off
 redcost_exc=off
 redcost_tddft=off
 refdet=serialno
 rest=2
 rgrid=log3
 rism=off
 rohfcore=semicanonical
 rohftype=standard
 scfalg=auto
 scf_conv=auto
 scfdamp=0.0d0
 scfdamp_mode=off
 scfdamp_end=9999
 scfdamp_dampstep=0.d0
 scfdamp_dtol=0.0d0
 scfdamp_maxfact=0.0d0
 scfdamp_minfact=0.0d0
 scfdiis=on
 scfdiis_dtol=0.0d0
 scfdiis_end=9999
 scfdiis_start=2
 scfdiis_step=1
 scfdiis_watch=off
 scfdiis_wrange=10
 scfdiis_wlimit=5
 scfdiis_delmax=2
 scfdtol=14
 scfext=10
 scfguessdens=
 scfiguess=ao
 scfloc=off
 scflshift=0.20
 scflshift_end=8
 scflshift_dtol=0.0
 scflshift_gaptol=0.20
 scfmaxit=9999
 scftype=uhf
 scftol=13
 scspe=1.d0
 scsph=1.d0
 scsps=1.2d0
 scsps_t=1.2d0
 scspt=0.33333333333333
 scspt_t=0.33333333333333
 scspv=1.d0
 spairtol=1e-4
 sqmprog=
 subminp=top
 symm=2
 talg=occ
 temp=298.15
 test=off
 theodore=off
 tlmo=0.999
 tpao=0.94
 tprint=0.01
 uncontract=off
 unit=angs
 usedisk=2
 verbosity=3
 wpairtol=0.100000000E-05

 ************************ 2025-02-16 13:10:32 *************************
 Executing goldstone...

 Generation of CC equations in terms of H and T...
 Generation of antisymmetrized Goldstone diagrams...
 Number of diagrams in T^1 equations:    15
 Number of diagrams in T^2 equations:    38
 Number of diagrams in T^3 equations:    54
 Number of diagrams in T^4 equations:    80
 Number of diagrams in T^5 equations:    99
 Translation of diagrams to factorized equations...
 Optimizing intermediate calculation...
 Number of floating-point operations per iteration step:   7.9816E+14
 Probable CPU time per iteration step (hours):         7981.62
 Required memory (Mbytes):        528160.9
 Number of intermediates:                                 141
 Number of intermediates to be stored:                     56
 Length of intermediate file (Mbytes):          9358.0

 ************************ 2025-02-16 13:10:33 *************************
 Executing xmrcc...

 **********************************************************************
 CC(                     5 ) calculation


 Allocation of      1996800.0 Mbytes of memory...
 Number of spinorbitals:                   218
 Number of alpha electrons:                        5
 Number of beta electrons:                         3
 Spin multiplicity:                     2
 z-component of spin:  1.0
 Spatial symmetry:                      2
 Convergence criterion:  1.0E-05
 Construction of occupation graphs...
 Number of                     0 -fold excitations:                      1
 Number of                     1 -fold excitations:                    160
 Number of                     2 -fold excitations:                  31675
 Number of                     3 -fold excitations:                3491644
 Number of                     4 -fold excitations:              199604301
 Number of                     5 -fold excitations:             6016578096
 Total number of configurations:             6219705877
 Calculation of coupling coefficients...
 Length of intermediate file (Mbytes):          5911.6

 ======================================================================

 Memory requirements /Mbyte/:
               Minimal        Optimal
 Real*8:    1114053.5818   1114053.5818
 Integer:     58519.3302
 Total:     1172572.9120   1172572.9120


 ************************ 2025-02-16 13:35:30 *************************
 Executing goldstone...

 Generation of CC equations in terms of H and T...
 Generation of antisymmetrized Goldstone diagrams...
 Number of diagrams in T^1 equations:    15
 Number of diagrams in T^2 equations:    34
 Number of diagrams in T^3 equations:     2
 Translation of diagrams to factorized equations...
 Optimizing intermediate calculation...
 Number of floating-point operations per iteration step:   3.3242E+09
 Probable CPU time per iteration step (hours):            0.03
 Required memory (Mbytes):         15915.1
 Number of intermediates:                                  49
 Number of intermediates to be stored:                     20
 Length of intermediate file (Mbytes):           267.9

 ************************ 2025-02-16 13:35:33 *************************
 Executing xmrcc...

 **********************************************************************
 CC(2)(3) calculation


 Allocation of      1996800.0 Mbytes of memory...
 Number of spinorbitals:                   218
 Number of alpha electrons:                        5
 Number of beta electrons:                         3
 Spin multiplicity:                     2
 z-component of spin:  1.0
 Spatial symmetry:                      2
 Convergence criterion:  1.0E-05
 Construction of occupation graphs...
 Number of                     0 -fold excitations:                      1
 Number of                     1 -fold excitations:                    160
 Number of                     2 -fold excitations:                  31675
 Total number of configurations:                  31836
 Calculation of coupling coefficients...
 Length of intermediate file (Mbytes):           204.6

 ======================================================================

 Spin case  1   Alpha:  0   Beta:  3
 Number of excitations:                  24294
 Spin case  2   Alpha:  1   Beta:  2
 Number of excitations:                1098477
 Spin case  3   Alpha:  2   Beta:  1
 Number of excitations:                2142354
 Spin case  4   Alpha:  3   Beta:  0
 Number of excitations:                 226519
 Number of                     3 -fold excitations:                3491644

 Memory requirements /Mbyte/:
               Minimal        Optimal
 Real*8:        186.0517      1140.3607
 Integer:         5.6122
 Total:         191.6638      1145.9729


 ************************ 2025-02-16 13:35:33 *************************
 Executing mrcc...

 **********************************************************************
 CCSD(T) calculation


 OpenMP parallel version is running.
 Number of CPU cores:  12
 Allocation of         1140.4 Mbytes of memory...
 Number of spinorbitals: 218
 Number of alpha electrons:  5
 Number of beta  electrons:  3
 Spin multiplicity: 3
 z-component of spin:  1.0
 Spatial symmetry: 2
 Convergence criterion:  1.0E-05
 Construction of occupation graphs...
 Number of 0-fold excitations: 1
 Number of 1-fold excitations: 160
 Number of 2-fold excitations: 31675
 Total number of determinants: 31836
 Calculation of coupling coefficients...
 Initial cluster amplitudes are generated.
 Length of intermediate file (Mbytes):           204.6
 Reading integral list from unit 55...
 Sorting integrals...
 Sorting integrals...
 Sorting integrals...
 Sorting integrals...
 Energy of reference determinant [au]:     -74.634409649005
 Calculation of MP denominators...

 Starting CC iteration...
 ======================================================================
 Norm of residual vector:     3.12932120
 CPU time [min]:     1.199                   Wall time [min]:     0.690

 Iteration  1  CC energy:   -74.96951975  Energy decrease:   0.33511010
 ======================================================================
 Norm of residual vector:     0.44570178
 CPU time [min]:     1.773                   Wall time [min]:     0.807

 Iteration  2  CC energy:   -75.03061129  Energy decrease:   0.06109154
 ======================================================================
 Norm of residual vector:     0.13617950
 CPU time [min]:     2.319                   Wall time [min]:     0.923

 Iteration  3  CC energy:   -75.05455874  Energy decrease:   0.02394745
 ======================================================================
 Norm of residual vector:     0.03673153
 CPU time [min]:     2.799                   Wall time [min]:     1.041

 Iteration  4  CC energy:   -75.04618947  Energy decrease:   0.00836927
 ======================================================================
 Norm of residual vector:     0.01588309
 CPU time [min]:     3.249                   Wall time [min]:     1.159

 Iteration  5  CC energy:   -75.05121848  Energy decrease:   0.00502902
 ======================================================================
 Norm of residual vector:     0.00608619
 CPU time [min]:     3.723                   Wall time [min]:     1.277

 Iteration  6  CC energy:   -75.05151126  Energy decrease:   0.00029278
 ======================================================================
 Norm of residual vector:     0.00224527
 CPU time [min]:     4.197                   Wall time [min]:     1.453

 Iteration  7  CC energy:   -75.05122529  Energy decrease:   0.00028597
 ======================================================================
 Norm of residual vector:     0.00079154
 CPU time [min]:     4.679                   Wall time [min]:     1.579

 Iteration  8  CC energy:   -75.05134212  Energy decrease:   0.00011684
 ======================================================================
 Norm of residual vector:     0.00029290
 CPU time [min]:     5.199                   Wall time [min]:     1.699

 Iteration  9  CC energy:   -75.05132383  Energy decrease:   0.00001830
 ======================================================================
 Norm of residual vector:     0.00008231
 CPU time [min]:     5.816                   Wall time [min]:     1.873

 Iteration 10  CC energy:   -75.05131946  Energy decrease:   0.00000437
 ======================================================================
 Norm of residual vector:     0.00002661
 CPU time [min]:     6.403                   Wall time [min]:     1.989

 Iteration 11  CC energy:   -75.05132158  Energy decrease:   0.00000212
 ======================================================================
 Norm of residual vector:     0.00000662
 CPU time [min]:     7.007                   Wall time [min]:     2.142

 Iteration 12  CC energy:   -75.05132199  Energy decrease:   0.00000041
 ======================================================================

 Iteration has converged in 12 steps.

 Final results:
 Total CCSD energy [au]:                      -75.051321992056

 Perturbative corrections are calculated...
 ======================================================================
 Spin case  1   Alpha:  0   Beta:  3
 Number of excitations:        24294
 CPU time [min]:     7.089                   Wall time [min]:     2.150
 ======================================================================
 Spin case  2   Alpha:  1   Beta:  2
 Number of excitations:        1098477
 CPU time [min]:     7.457                   Wall time [min]:     2.181
 ======================================================================
 Spin case  3   Alpha:  2   Beta:  1
 Number of excitations:        2142354
 CPU time [min]:     7.978                   Wall time [min]:     2.232
 ======================================================================
 Spin case  4   Alpha:  3   Beta:  0
 Number of excitations:        226519
 CPU time [min]:     8.098                   Wall time [min]:     2.243
 ======================================================================
 Number of 3-fold excitations: 3491644


 CPU time [min]:     8.099                   Wall time [min]:     2.243

 Total CCSD[T] energy [au]:                   -75.056432595404
 Total CCSD(T) energy [au]:                   -75.053445099429

 Dominant cluster amplitudes
 Printing threshold:  1.00E-02

    1.000000  Reference determinant
   -0.023148  2b -> 14b
    0.011050  2b -> 18b
   -0.032325  2b -> 26b
    0.012675  2b -> 30b
   -0.015768  2b -> 51b
   -0.739466  3b -> 6b
   -0.262009  3b -> 15b
   -0.059448  3b -> 31b
   -0.010688  2a -> 26a
    0.023277  2a -> 30a
    0.015293  2a -> 55a
    0.015771  3a -> 6a
    0.011423  3a -> 23a
    0.012161  3a -> 48a
   -0.010900  4a -> 16a
   -0.011226  4a -> 32a
   -0.022499  5a -> 9a
   -0.035979  5a -> 17a
    0.011989  5a -> 25a
   -0.015804  5a -> 33a
    0.013154  5a -> 50a
   -0.012213  2b 3b -> 5b 13b
   -0.014154  2b 3b -> 15b 18b
   -0.011996  2b 3b -> 4b 27b
    0.011561  2b 3b -> 7b 27b
   -0.017628  2b 3b -> 5b 29b
    0.013281  2a 2b -> 18a 18b
    0.013296  3a 3b -> 18a 18b
   -0.017707  3a 3b -> 26a 30b
   -0.010512  3a 3b -> 51a 55b
   -0.017795  3a 3b -> 29a 29b
   -0.010495  3a 3b -> 54a 54b
   -0.017767  3a 3b -> 27a 27b
   -0.010518  3a 3b -> 52a 52b
   -0.014309  3a 3b -> 6a 6b
   -0.024426  3a 3b -> 15a 6b
   -0.010244  3a 3b -> 31a 6b
   -0.024700  3a 3b -> 6a 15b
   -0.047485  3a 3b -> 15a 15b
   -0.025520  3a 3b -> 31a 15b
   -0.011184  3a 3b -> 6a 31b
   -0.026347  3a 3b -> 15a 31b
   -0.025299  3a 3b -> 31a 31b
    0.014517  2a 2b -> 17a 5b
    0.010955  3a 3b -> 17a 5b
   -0.012560  5a 3b -> 30a 29b
   -0.012383  5a 3b -> 28a 27b
   -0.012330  5a 3b -> 29a 30b
    0.015348  5a 3b -> 6a 5b
    0.017776  5a 3b -> 15a 5b
   -0.018300  5a 3b -> 17a 6b
   -0.016121  5a 3b -> 9a 15b
   -0.034167  5a 3b -> 17a 15b
   -0.020191  5a 3b -> 33a 15b
   -0.018848  5a 3b -> 17a 31b
   -0.018268  5a 3b -> 33a 31b
   -0.012347  4a 3b -> 28a 29b
    0.010441  4a 3b -> 15a 4b
   -0.011530  4a 3b -> 15a 7b
   -0.010853  4a 3b -> 15a 16b
   -0.018034  4a 3b -> 16a 6b
   -0.016535  4a 3b -> 7a 15b
   -0.033855  4a 3b -> 16a 15b
   -0.019837  4a 3b -> 32a 15b
   -0.018854  4a 3b -> 16a 31b
   -0.018115  4a 3b -> 32a 31b
   -0.012282  2a 3b -> 18a 6b
   -0.015903  2a 3b -> 8a 15b
   -0.025952  2a 3b -> 18a 15b
   -0.013050  2a 3b -> 43a 15b
   -0.017205  2a 3b -> 18a 31b
   -0.014690  2a 3b -> 43a 31b
   -0.014977  2a 3b -> 29a 5b
   -0.010772  2a 3b -> 54a 5b
   -0.013082  3a 2b -> 13a 5b
   -0.026093  3a 2b -> 29a 5b
   -0.016508  3a 2b -> 54a 5b
   -0.010399  2a 3b -> 27a 4b
   -0.017724  3a 2b -> 27a 4b
   -0.010396  3a 2b -> 52a 4b
    0.017068  3a 2b -> 27a 7b
    0.010706  3a 2b -> 52a 7b
    0.010201  3a 2b -> 27a 16b
    0.010644  2a 3b -> 15a 18b
    0.016641  3a 2b -> 15a 18b
    0.012458  3a 2b -> 31a 18b
   -0.010974  3a 2b -> 31a 43b
    0.017841  4a 2b -> 26a 4b
    0.010891  4a 2b -> 30a 4b
    0.010416  4a 2b -> 51a 4b
   -0.017190  4a 2b -> 26a 7b
   -0.010502  4a 2b -> 30a 7b
   -0.010713  4a 2b -> 51a 7b
   -0.010558  4a 2b -> 18a 16b
   -0.010343  4a 2b -> 26a 16b
   -0.013455  4a 2b -> 12a 5b
   -0.026921  4a 2b -> 28a 5b
   -0.016899  4a 2b -> 53a 5b
    0.016256  4a 2b -> 16a 18b
    0.012531  4a 2b -> 32a 18b
   -0.011017  4a 2b -> 32a 43b
    0.011465  5a 2b -> 8a 5b
   -0.015509  5a 2b -> 14a 5b
    0.013283  5a 2b -> 18a 5b
   -0.030694  5a 2b -> 30a 5b
   -0.019543  5a 2b -> 55a 5b
   -0.018353  5a 2b -> 28a 4b
   -0.010769  5a 2b -> 53a 4b
    0.017668  5a 2b -> 28a 7b
    0.011061  5a 2b -> 53a 7b
    0.010603  5a 2b -> 28a 16b
    0.016387  5a 2b -> 17a 18b
    0.012716  5a 2b -> 33a 18b
   -0.011145  5a 2b -> 33a 43b
   -0.015837  4a 5a -> 16a 17a
   -0.011597  4a 5a -> 28a 30a
    0.011256  4a 5a -> 17a 32a
   -0.011453  4a 5a -> 16a 33a
   -0.011578  4a 5a -> 32a 33a
   -0.015733  3a 5a -> 15a 17a
   -0.011895  3a 5a -> 29a 30a
    0.010683  3a 5a -> 17a 31a
   -0.011410  3a 5a -> 15a 33a
   -0.011178  3a 5a -> 31a 33a
   -0.015593  3a 4a -> 15a 16a
   -0.013926  3a 4a -> 26a 27a
    0.010684  3a 4a -> 16a 31a
   -0.011212  3a 4a -> 15a 32a
   -0.011067  3a 4a -> 31a 32a

 ************************ 2025-02-16 13:37:48 *************************
 Executing goldstone...

 Generation of CC equations in terms of H and T...
 Generation of antisymmetrized Goldstone diagrams...
 Number of diagrams in T^1 equations:    15
 Number of diagrams in T^2 equations:    38
 Number of diagrams in T^3 equations:    50
 Number of diagrams in T^4 equations:     5
 Translation of diagrams to factorized equations...
 Optimizing intermediate calculation...
 Number of floating-point operations per iteration step:   9.2566E+11
 Probable CPU time per iteration step (hours):            9.26
 Required memory (Mbytes):         15915.1
 Number of intermediates:                                  80
 Number of intermediates to be stored:                     32
 Length of intermediate file (Mbytes):           296.6

 ************************ 2025-02-16 13:37:49 *************************
 Executing xmrcc...

 **********************************************************************
 CC(3)(4) calculation


 Allocation of      1996800.0 Mbytes of memory...
 Number of spinorbitals:                   218
 Number of alpha electrons:                        5
 Number of beta electrons:                         3
 Spin multiplicity:                     2
 z-component of spin:  1.0
 Spatial symmetry:                      2
 Convergence criterion:  1.0E-05
 Construction of occupation graphs...
 Number of                     0 -fold excitations:                      1
 Number of                     1 -fold excitations:                    160
 Number of                     2 -fold excitations:                  31675
 Number of                     3 -fold excitations:                3491644
 Total number of configurations:                3523480
 Calculation of coupling coefficients...
 Length of intermediate file (Mbytes):           226.3

 ======================================================================

 Spin case  1   Alpha:  1   Beta:  3
 Number of excitations:               12548924
 Spin case  2   Alpha:  2   Beta:  2
 Number of excitations:              111870741
 Spin case  3   Alpha:  3   Beta:  1
 Number of excitations:               72313796
 Spin case  4   Alpha:  4   Beta:  0
 Number of excitations:                2870840
 Number of                     4 -fold excitations:              199604301

 Memory requirements /Mbyte/:
               Minimal        Optimal
 Real*8:        786.9577      1077.3178
 Integer:        98.6193
 Total:         885.5770      1175.9371


 ************************ 2025-02-16 13:37:54 *************************
 Executing mrcc...

 **********************************************************************
 CCSDT(Q) calculation


 OpenMP parallel version is running.
 Number of CPU cores:  12
 Allocation of         1077.3 Mbytes of memory...
 Number of spinorbitals: 218
 Number of alpha electrons:  5
 Number of beta  electrons:  3
 Spin multiplicity: 3
 z-component of spin:  1.0
 Spatial symmetry: 2
 Convergence criterion:  1.0E-05
 Construction of occupation graphs...
 Number of 0-fold excitations: 1
 Number of 1-fold excitations: 160
 Number of 2-fold excitations: 31675
 Number of 3-fold excitations: 3491644
 Total number of determinants: 3523480
 Calculation of coupling coefficients...
 Initial cluster amplitudes are read from unit 16.
 Length of intermediate file (Mbytes):           226.3
 Reading integral list from unit 55...
 Sorting integrals...
 Sorting integrals...
 Sorting integrals...
 Sorting integrals...
 Energy of reference determinant [au]:     -74.634409649005
 Calculation of MP denominators...

 Starting CC iteration...
 ======================================================================
 Norm of residual vector:     0.32558720
 CPU time [min]:     4.773                   Wall time [min]:     1.156

 Iteration  1  CC energy:   -75.05132195  Energy decrease:   0.00000004
 ======================================================================
 Norm of residual vector:     0.04108186
 CPU time [min]:     8.590                   Wall time [min]:     1.605

 Iteration  2  CC energy:   -75.05512140  Energy decrease:   0.00379945
 ======================================================================
 Norm of residual vector:     0.01494068
 CPU time [min]:    12.529                   Wall time [min]:     2.115

 Iteration  3  CC energy:   -75.05552002  Energy decrease:   0.00039863
 ======================================================================
 Norm of residual vector:     0.00471056
 CPU time [min]:    16.150                   Wall time [min]:     2.672

 Iteration  4  CC energy:   -75.05586323  Energy decrease:   0.00034321
 ======================================================================
 Norm of residual vector:     0.00258907
 CPU time [min]:    20.107                   Wall time [min]:     3.175

 Iteration  5  CC energy:   -75.05593607  Energy decrease:   0.00007284
 ======================================================================
 Norm of residual vector:     0.00114846
 CPU time [min]:    24.003                   Wall time [min]:     3.654

 Iteration  6  CC energy:   -75.05599368  Energy decrease:   0.00005761
 ======================================================================
 Norm of residual vector:     0.00058593
 CPU time [min]:    27.916                   Wall time [min]:     4.165

 Iteration  7  CC energy:   -75.05601163  Energy decrease:   0.00001795
 ======================================================================
 Norm of residual vector:     0.00026151
 CPU time [min]:    31.944                   Wall time [min]:     4.646

 Iteration  8  CC energy:   -75.05601203  Energy decrease:   0.00000040
 ======================================================================
 Norm of residual vector:     0.00010787
 CPU time [min]:    36.029                   Wall time [min]:     5.094

 Iteration  9  CC energy:   -75.05600695  Energy decrease:   0.00000508
 ======================================================================
 Norm of residual vector:     0.00003949
 CPU time [min]:    40.199                   Wall time [min]:     5.594

 Iteration 10  CC energy:   -75.05600630  Energy decrease:   0.00000066
 ======================================================================
 Norm of residual vector:     0.00001449
 CPU time [min]:    44.254                   Wall time [min]:     6.123

 Iteration 11  CC energy:   -75.05600627  Energy decrease:   0.00000003
 ======================================================================
 Norm of residual vector:     0.00000498
 CPU time [min]:    48.470                   Wall time [min]:     6.919

 Iteration 12  CC energy:   -75.05600646  Energy decrease:   0.00000019
 ======================================================================

 Iteration has converged in 12 steps.

 Final results:
 Total CCSDT energy [au]:                     -75.056006457441

 Perturbative corrections are calculated...
 ======================================================================
 Spin case  1   Alpha:  1   Beta:  3
 Number of excitations:        12548924
 CPU time [min]:    97.178                   Wall time [min]:    11.830
 ======================================================================
 Spin case  2   Alpha:  2   Beta:  2
 Number of excitations:        111870741
 CPU time [min]:   230.367                   Wall time [min]:    24.421
 ======================================================================
 Spin case  3   Alpha:  3   Beta:  1
 Number of excitations:        72313796
 CPU time [min]:   322.174                   Wall time [min]:    32.907
 ======================================================================
 Spin case  4   Alpha:  4   Beta:  0
 Number of excitations:        2870840
 CPU time [min]:   331.523                   Wall time [min]:    33.830
 ======================================================================
 Number of 4-fold excitations: 199604301

 T_2^+ contribution [au]:                      -0.000069638176
 T_3^+ contribution [au]:                      -0.000099679530
 T_1^+ * T_2^+ contribution [au]:              -0.000008584327
 T_1^+ * <ab||ij> contribution [au]:            0.000000382426
 T_2^+ * f_ai contribution [au]:               -0.000007693182

 CPU time [min]:   331.900                   Wall time [min]:    33.869

 Total CCSDT[Q] energy [au]:                  -75.056076095616
 Total CCSDT(Q)/A energy [au]:                -75.056184359474
 Total CCSDT(Q)/B energy [au]:                -75.056183085903

 Dominant cluster amplitudes
 Printing threshold:  1.00E-02

    1.000000  Reference determinant
   -0.023163  2b -> 14b
    0.010930  2b -> 18b
   -0.032383  2b -> 26b
    0.012735  2b -> 30b
   -0.015789  2b -> 51b
   -0.738932  3b -> 6b
   -0.261493  3b -> 15b
   -0.059134  3b -> 31b
   -0.010752  2a -> 26a
    0.023330  2a -> 30a
    0.015308  2a -> 55a
    0.018018  3a -> 6a
    0.011415  3a -> 23a
    0.012138  3a -> 48a
   -0.010922  4a -> 32a
   -0.021453  5a -> 9a
   -0.035114  5a -> 17a
    0.011963  5a -> 25a
   -0.015489  5a -> 33a
    0.013120  5a -> 50a
   -0.013389  2b 3b -> 5b 13b
   -0.015006  2b 3b -> 15b 18b
   -0.012720  2b 3b -> 4b 27b
    0.012214  2b 3b -> 7b 27b
   -0.018582  2b 3b -> 5b 29b
    0.013638  2a 2b -> 18a 18b
    0.013642  3a 3b -> 18a 18b
   -0.018140  3a 3b -> 26a 30b
   -0.010587  3a 3b -> 51a 55b
   -0.018177  3a 3b -> 29a 29b
   -0.010565  3a 3b -> 54a 54b
   -0.018140  3a 3b -> 27a 27b
   -0.010588  3a 3b -> 52a 52b
   -0.016042  3a 3b -> 6a 6b
   -0.026139  3a 3b -> 15a 6b
   -0.010394  3a 3b -> 31a 6b
   -0.026675  3a 3b -> 6a 15b
   -0.049631  3a 3b -> 15a 15b
   -0.025909  3a 3b -> 31a 15b
   -0.011482  3a 3b -> 6a 31b
   -0.026798  3a 3b -> 15a 31b
   -0.025718  3a 3b -> 31a 31b
    0.015272  2a 2b -> 17a 5b
    0.011423  3a 3b -> 17a 5b
   -0.012934  5a 3b -> 30a 29b
   -0.012751  5a 3b -> 28a 27b
   -0.012753  5a 3b -> 29a 30b
    0.018998  5a 3b -> 6a 5b
    0.019846  5a 3b -> 15a 5b
   -0.010841  5a 3b -> 9a 6b
   -0.019755  5a 3b -> 17a 6b
   -0.017452  5a 3b -> 9a 15b
   -0.035996  5a 3b -> 17a 15b
   -0.020659  5a 3b -> 33a 15b
   -0.019267  5a 3b -> 17a 31b
   -0.018725  5a 3b -> 33a 31b
   -0.012727  4a 3b -> 28a 29b
    0.012330  4a 3b -> 6a 4b
    0.011991  4a 3b -> 15a 4b
   -0.012366  4a 3b -> 6a 7b
   -0.012999  4a 3b -> 15a 7b
   -0.011710  4a 3b -> 15a 16b
   -0.011099  4a 3b -> 7a 6b
   -0.019532  4a 3b -> 16a 6b
   -0.017975  4a 3b -> 7a 15b
   -0.035732  4a 3b -> 16a 15b
   -0.020272  4a 3b -> 32a 15b
   -0.019272  4a 3b -> 16a 31b
   -0.018546  4a 3b -> 32a 31b
   -0.012728  2a 3b -> 18a 6b
   -0.016580  2a 3b -> 8a 15b
   -0.026580  2a 3b -> 18a 15b
   -0.013133  2a 3b -> 43a 15b
   -0.017399  2a 3b -> 18a 31b
   -0.014897  2a 3b -> 43a 31b
   -0.015469  2a 3b -> 29a 5b
   -0.010998  2a 3b -> 54a 5b
   -0.014508  3a 2b -> 13a 5b
   -0.027332  3a 2b -> 29a 5b
   -0.016732  3a 2b -> 54a 5b
   -0.010742  2a 3b -> 27a 4b
    0.010131  2a 3b -> 27a 7b
   -0.010510  3a 2b -> 11a 4b
   -0.018666  3a 2b -> 27a 4b
   -0.010538  3a 2b -> 52a 4b
    0.017890  3a 2b -> 27a 7b
    0.010859  3a 2b -> 52a 7b
    0.010523  3a 2b -> 27a 16b
    0.010699  2a 3b -> 15a 18b
   -0.010779  3a 2b -> 15a 8b
    0.017584  3a 2b -> 15a 18b
    0.012603  3a 2b -> 31a 18b
   -0.011106  3a 2b -> 31a 43b
    0.010522  4a 2b -> 10a 4b
    0.018669  4a 2b -> 26a 4b
    0.011404  4a 2b -> 30a 4b
    0.010538  4a 2b -> 51a 4b
   -0.017909  4a 2b -> 26a 7b
   -0.010945  4a 2b -> 30a 7b
   -0.010847  4a 2b -> 51a 7b
   -0.010974  4a 2b -> 18a 16b
   -0.010608  4a 2b -> 26a 16b
   -0.014639  4a 2b -> 12a 5b
   -0.028030  4a 2b -> 28a 5b
   -0.017110  4a 2b -> 53a 5b
   -0.010433  4a 2b -> 16a 8b
    0.017095  4a 2b -> 16a 18b
    0.012704  4a 2b -> 32a 18b
   -0.011151  4a 2b -> 32a 43b
    0.012559  5a 2b -> 8a 5b
   -0.016836  5a 2b -> 14a 5b
    0.013846  5a 2b -> 18a 5b
   -0.031937  5a 2b -> 30a 5b
   -0.019801  5a 2b -> 55a 5b
   -0.010431  5a 2b -> 12a 4b
   -0.019195  5a 2b -> 28a 4b
   -0.010912  5a 2b -> 53a 4b
    0.018398  5a 2b -> 28a 7b
    0.011216  5a 2b -> 53a 7b
    0.010874  5a 2b -> 28a 16b
   -0.010525  5a 2b -> 17a 8b
    0.017210  5a 2b -> 17a 18b
    0.012896  5a 2b -> 33a 18b
   -0.011285  5a 2b -> 33a 43b
   -0.017199  4a 5a -> 16a 17a
   -0.012113  4a 5a -> 28a 30a
    0.011483  4a 5a -> 17a 32a
   -0.011701  4a 5a -> 16a 33a
   -0.011740  4a 5a -> 32a 33a
   -0.017406  3a 5a -> 15a 17a
   -0.012497  3a 5a -> 29a 30a
    0.010878  3a 5a -> 17a 31a
   -0.011743  3a 5a -> 15a 33a
   -0.011338  3a 5a -> 31a 33a
   -0.017282  3a 4a -> 15a 16a
   -0.014596  3a 4a -> 26a 27a
    0.010886  3a 4a -> 16a 31a
   -0.011528  3a 4a -> 15a 32a
   -0.011219  3a 4a -> 31a 32a

 ************************ 2025-02-16 14:11:47 *************************
 Executing goldstone...

 Generation of CC equations in terms of H and T...
 Generation of antisymmetrized Goldstone diagrams...
 Number of diagrams in T^1 equations:    15
 Number of diagrams in T^2 equations:    38
 Number of diagrams in T^3 equations:    54
 Number of diagrams in T^4 equations:    77
 Number of diagrams in T^5 equations:     8
 Translation of diagrams to factorized equations...
 Optimizing intermediate calculation...
 Number of floating-point operations per iteration step:   9.5813E+13
 Probable CPU time per iteration step (hours):          958.13
 Required memory (Mbytes):        173250.0
 Number of intermediates:                                 119
 Number of intermediates to be stored:                     52
 Length of intermediate file (Mbytes):          6882.3

 ************************ 2025-02-16 14:11:48 *************************
 Executing xmrcc...

 **********************************************************************
 CC(4)(5) calculation


 Allocation of      1996800.0 Mbytes of memory...
 Number of spinorbitals:                   218
 Number of alpha electrons:                        5
 Number of beta electrons:                         3
 Spin multiplicity:                     2
 z-component of spin:  1.0
 Spatial symmetry:                      2
 Convergence criterion:  1.0E-05
 Construction of occupation graphs...
 Number of                     0 -fold excitations:                      1
 Number of                     1 -fold excitations:                    160
 Number of                     2 -fold excitations:                  31675
 Number of                     3 -fold excitations:                3491644
 Number of                     4 -fold excitations:              199604301
 Total number of configurations:              203127781
 Calculation of coupling coefficients...
 Length of intermediate file (Mbytes):          4409.7

 ======================================================================

 Spin case  1   Alpha:  2   Beta:  3
 Number of excitations:             1291671280
 Spin case  2   Alpha:  3   Beta:  2
 Number of excitations:             3799733079
 Spin case  3   Alpha:  4   Beta:  1
 Number of excitations:              913671287
 Spin case  4   Alpha:  5   Beta:  0
 Number of excitations:               11502450
 Number of                     5 -fold excitations:             6016578096

 Memory requirements /Mbyte/:
               Minimal        Optimal
 Real*8:      22994.7291     22994.7291
 Integer:      1805.6275
 Total:       24800.3566     24800.3566


 ************************ 2025-02-16 14:13:46 *************************
 Executing mrcc...

 **********************************************************************
 CCSDTQ(P) calculation


 OpenMP parallel version is running.
 Number of CPU cores:  12
 Allocation of        22994.7 Mbytes of memory...
 Number of spinorbitals: 218
 Number of alpha electrons:  5
 Number of beta  electrons:  3
 Spin multiplicity: 3
 z-component of spin:  1.0
 Spatial symmetry: 2
 Convergence criterion:  1.0E-05
 Construction of occupation graphs...
 Number of 0-fold excitations: 1
 Number of 1-fold excitations: 160
 Number of 2-fold excitations: 31675
 Number of 3-fold excitations: 3491644
 Number of 4-fold excitations: 199604301
 Total number of determinants: 203127781
 Calculation of coupling coefficients...
 Initial cluster amplitudes are read from unit 16.
 Length of intermediate file (Mbytes):          4409.7
 Reading integral list from unit 55...
 Sorting integrals...
 Sorting integrals...
 Sorting integrals...
 Sorting integrals...
 Energy of reference determinant [au]:     -74.634409649005
 Calculation of MP denominators...

 Starting CC iteration...
 ======================================================================
 Norm of residual vector:     0.05691018
 CPU time [min]:   167.298                   Wall time [min]:    33.376

 Iteration  1  CC energy:   -75.05600646  Energy decrease:   0.00000001
 ======================================================================
 Norm of residual vector:     0.00807015
 CPU time [min]:   332.084                   Wall time [min]:    63.309

 Iteration  2  CC energy:   -75.05598716  Energy decrease:   0.00001931
 ======================================================================
 Norm of residual vector:     0.00259512
 CPU time [min]:   498.998                   Wall time [min]:    93.711

 Iteration  3  CC energy:   -75.05613387  Energy decrease:   0.00014671
 ======================================================================
 Norm of residual vector:     0.00093901
 CPU time [min]:   657.994                   Wall time [min]:   123.467

 Iteration  4  CC energy:   -75.05614788  Energy decrease:   0.00001402
 ======================================================================
 Norm of residual vector:     0.00037902
 CPU time [min]:   825.222                   Wall time [min]:   154.614

 Iteration  5  CC energy:   -75.05616770  Energy decrease:   0.00001982
 ======================================================================
 Norm of residual vector:     0.00016002
 CPU time [min]:   986.362                   Wall time [min]:   185.080

 Iteration  6  CC energy:   -75.05617017  Energy decrease:   0.00000247
 ======================================================================
 Norm of residual vector:     0.00006373
 CPU time [min]:  1150.145                   Wall time [min]:   216.185

 Iteration  7  CC energy:   -75.05617284  Energy decrease:   0.00000267
 ======================================================================
 Norm of residual vector:     0.00003217
 CPU time [min]:  1317.512                   Wall time [min]:   247.195

 Iteration  8  CC energy:   -75.05617357  Energy decrease:   0.00000073
 ======================================================================
 Norm of residual vector:     0.00001609
 CPU time [min]:  1477.526                   Wall time [min]:   278.338

 Iteration  9  CC energy:   -75.05617396  Energy decrease:   0.00000039
 ======================================================================
 Norm of residual vector:     0.00000731
 CPU time [min]:  1643.261                   Wall time [min]:   309.999

 Iteration 10  CC energy:   -75.05617382  Energy decrease:   0.00000014
 ======================================================================

 Iteration has converged in 10 steps.

 Final results:
 Total CCSDTQ energy [au]:                    -75.056173817230

 Perturbative corrections are calculated...
 ======================================================================
 Spin case  1   Alpha:  2   Beta:  3
 Number of excitations:        1291671280
 CPU time [min]:  8356.768                   Wall time [min]:   918.106
 ======================================================================
 Spin case  2   Alpha:  3   Beta:  2
 Number of excitations:        3799733079
 CPU time [min]: 19568.894                   Wall time [min]:  1943.968
 ======================================================================
 Spin case  3   Alpha:  4   Beta:  1
 Number of excitations:        913671287
 CPU time [min]: 23753.313                   Wall time [min]:  2312.098
 ======================================================================
 Spin case  4   Alpha:  5   Beta:  0
 Number of excitations:        11502450
 CPU time [min]: 23932.286                   Wall time [min]:  2328.201
 ======================================================================
 Number of 5-fold excitations: 6016578096

 T_3^+ contribution [au]:                      -0.000001199114
 T_1^+ * T_2^+ contribution [au]:              -0.000001117252
 T_1^+ * <ab||ij> contribution [au]:           -0.000000729554
 T_2^+ * f_ai contribution [au]:               -0.000000313862
 T_2^+ contribution [au]:                      -0.000000857815

 CPU time [min]: 23935.133                   Wall time [min]:  2330.683

 Total CCSDTQ[P] energy [au]:                 -75.056176991412
 Total CCSDTQ(P)/A energy [au]:               -75.056176991412
 Total CCSDTQ(P)/B energy [au]:               -75.056176917576

 Dominant cluster amplitudes
 Printing threshold:  1.00E-02

    1.000000  Reference determinant
   -0.023164  2b -> 14b
    0.010946  2b -> 18b
   -0.032385  2b -> 26b
    0.012739  2b -> 30b
   -0.015790  2b -> 51b
   -0.739048  3b -> 6b
   -0.261559  3b -> 15b
   -0.059136  3b -> 31b
   -0.010754  2a -> 26a
    0.023332  2a -> 30a
    0.015308  2a -> 55a
    0.018013  3a -> 6a
    0.011411  3a -> 23a
    0.012138  3a -> 48a
   -0.010914  4a -> 32a
   -0.021487  5a -> 9a
   -0.035139  5a -> 17a
    0.011960  5a -> 25a
   -0.015482  5a -> 33a
    0.013120  5a -> 50a
   -0.013430  2b 3b -> 5b 13b
   -0.015029  2b 3b -> 15b 18b
   -0.012738  2b 3b -> 4b 27b
    0.012231  2b 3b -> 7b 27b
   -0.018606  2b 3b -> 5b 29b
    0.013648  2a 2b -> 18a 18b
    0.013647  3a 3b -> 18a 18b
   -0.018152  3a 3b -> 26a 30b
   -0.010587  3a 3b -> 51a 55b
   -0.018190  3a 3b -> 29a 29b
   -0.010565  3a 3b -> 54a 54b
   -0.018152  3a 3b -> 27a 27b
   -0.010587  3a 3b -> 52a 52b
   -0.016101  3a 3b -> 6a 6b
   -0.026197  3a 3b -> 15a 6b
   -0.010403  3a 3b -> 31a 6b
   -0.026731  3a 3b -> 6a 15b
   -0.049709  3a 3b -> 15a 15b
   -0.025930  3a 3b -> 31a 15b
   -0.011488  3a 3b -> 6a 31b
   -0.026819  3a 3b -> 15a 31b
   -0.025724  3a 3b -> 31a 31b
    0.015293  2a 2b -> 17a 5b
    0.011442  3a 3b -> 17a 5b
   -0.012944  5a 3b -> 30a 29b
   -0.012761  5a 3b -> 28a 27b
   -0.012761  5a 3b -> 29a 30b
    0.019139  5a 3b -> 6a 5b
    0.019918  5a 3b -> 15a 5b
   -0.010880  5a 3b -> 9a 6b
   -0.019799  5a 3b -> 17a 6b
   -0.017485  5a 3b -> 9a 15b
   -0.036054  5a 3b -> 17a 15b
   -0.020678  5a 3b -> 33a 15b
   -0.019283  5a 3b -> 17a 31b
   -0.018732  5a 3b -> 33a 31b
   -0.012738  4a 3b -> 28a 29b
    0.012450  4a 3b -> 6a 4b
    0.012050  4a 3b -> 15a 4b
   -0.012471  4a 3b -> 6a 7b
   -0.013051  4a 3b -> 15a 7b
   -0.011735  4a 3b -> 15a 16b
   -0.011145  4a 3b -> 7a 6b
   -0.019580  4a 3b -> 16a 6b
   -0.018014  4a 3b -> 7a 15b
   -0.035793  4a 3b -> 16a 15b
   -0.020290  4a 3b -> 32a 15b
   -0.019288  4a 3b -> 16a 31b
   -0.018553  4a 3b -> 32a 31b
   -0.012738  2a 3b -> 18a 6b
   -0.016594  2a 3b -> 8a 15b
   -0.026601  2a 3b -> 18a 15b
   -0.013139  2a 3b -> 43a 15b
   -0.017408  2a 3b -> 18a 31b
   -0.014898  2a 3b -> 43a 31b
   -0.015486  2a 3b -> 29a 5b
   -0.011000  2a 3b -> 54a 5b
   -0.014566  3a 2b -> 13a 5b
   -0.027365  3a 2b -> 29a 5b
   -0.016734  3a 2b -> 54a 5b
   -0.010754  2a 3b -> 27a 4b
    0.010142  2a 3b -> 27a 7b
   -0.010558  3a 2b -> 11a 4b
   -0.018691  3a 2b -> 27a 4b
   -0.010539  3a 2b -> 52a 4b
    0.017912  3a 2b -> 27a 7b
    0.010860  3a 2b -> 52a 7b
    0.010531  3a 2b -> 27a 16b
    0.010708  2a 3b -> 15a 18b
   -0.010818  3a 2b -> 15a 8b
    0.017616  3a 2b -> 15a 18b
    0.012609  3a 2b -> 31a 18b
   -0.011108  3a 2b -> 31a 43b
    0.010559  4a 2b -> 10a 4b
    0.018691  4a 2b -> 26a 4b
    0.011416  4a 2b -> 30a 4b
    0.010539  4a 2b -> 51a 4b
   -0.017928  4a 2b -> 26a 7b
   -0.010955  4a 2b -> 30a 7b
   -0.010848  4a 2b -> 51a 7b
   -0.010984  4a 2b -> 18a 16b
   -0.010617  4a 2b -> 26a 16b
   -0.014681  4a 2b -> 12a 5b
   -0.028059  4a 2b -> 28a 5b
   -0.017113  4a 2b -> 53a 5b
   -0.010463  4a 2b -> 16a 8b
    0.017120  4a 2b -> 16a 18b
    0.012711  4a 2b -> 32a 18b
   -0.011154  4a 2b -> 32a 43b
    0.012603  5a 2b -> 8a 5b
   -0.016882  5a 2b -> 14a 5b
    0.013865  5a 2b -> 18a 5b
   -0.031970  5a 2b -> 30a 5b
   -0.019805  5a 2b -> 55a 5b
   -0.010463  5a 2b -> 12a 4b
   -0.019216  5a 2b -> 28a 4b
   -0.010914  5a 2b -> 53a 4b
    0.018417  5a 2b -> 28a 7b
    0.011218  5a 2b -> 53a 7b
    0.010882  5a 2b -> 28a 16b
   -0.010553  5a 2b -> 17a 8b
    0.017234  5a 2b -> 17a 18b
    0.012903  5a 2b -> 33a 18b
   -0.011288  5a 2b -> 33a 43b
   -0.017255  4a 5a -> 16a 17a
   -0.012129  4a 5a -> 28a 30a
    0.011493  4a 5a -> 17a 32a
   -0.011711  4a 5a -> 16a 33a
   -0.011745  4a 5a -> 32a 33a
   -0.017475  3a 5a -> 15a 17a
   -0.012513  3a 5a -> 29a 30a
    0.010885  3a 5a -> 17a 31a
   -0.011754  3a 5a -> 15a 33a
   -0.011343  3a 5a -> 31a 33a
   -0.017355  3a 4a -> 15a 16a
   -0.014612  3a 4a -> 26a 27a
    0.010892  3a 4a -> 16a 31a
   -0.011538  3a 4a -> 15a 32a
   -0.011223  3a 4a -> 31a 32a

 ************************ 2025-02-18 05:04:37 *************************
 Executing goldstone...

 Generation of CC equations in terms of H and T...
 Generation of antisymmetrized Goldstone diagrams...
 Number of diagrams in T^1 equations:    15
 Number of diagrams in T^2 equations:    38
 Number of diagrams in T^3 equations:    54
 Number of diagrams in T^4 equations:    80
 Number of diagrams in T^5 equations:    99
 Translation of diagrams to factorized equations...
 Optimizing intermediate calculation...
 Number of floating-point operations per iteration step:   7.9816E+14
 Probable CPU time per iteration step (hours):         7981.62
 Required memory (Mbytes):        528160.9
 Number of intermediates:                                 141
 Number of intermediates to be stored:                     56
 Length of intermediate file (Mbytes):          9358.0

 ************************ 2025-02-18 05:04:40 *************************
 Executing xmrcc...

 **********************************************************************
 CC(                     5 ) calculation


 Allocation of      1996800.0 Mbytes of memory...
 Number of spinorbitals:                   218
 Number of alpha electrons:                        5
 Number of beta electrons:                         3
 Spin multiplicity:                     2
 z-component of spin:  1.0
 Spatial symmetry:                      2
 Convergence criterion:  1.0E-05
 Construction of occupation graphs...
 Number of                     0 -fold excitations:                      1
 Number of                     1 -fold excitations:                    160
 Number of                     2 -fold excitations:                  31675
 Number of                     3 -fold excitations:                3491644
 Number of                     4 -fold excitations:              199604301
 Number of                     5 -fold excitations:             6016578096
 Total number of configurations:             6219705877
 Calculation of coupling coefficients...
 Length of intermediate file (Mbytes):          5911.6

 ======================================================================

 Memory requirements /Mbyte/:
               Minimal        Optimal
 Real*8:    1114053.5818   1114053.5818
 Integer:     58519.3302
 Total:     1172572.9120   1172572.9120


 ************************ 2025-02-18 05:29:40 *************************
 Executing mrcc...

 **********************************************************************
 CCSDTQP calculation


 OpenMP parallel version is running.
 Number of CPU cores:  12
 Allocation of      1114053.6 Mbytes of memory...
 Number of spinorbitals: 218
 Number of alpha electrons:  5
 Number of beta  electrons:  3
 Spin multiplicity: 3
 z-component of spin:  1.0
 Spatial symmetry: 2
 Convergence criterion:  1.0E-05
 Construction of occupation graphs...
 Number of 0-fold excitations: 1
 Number of 1-fold excitations: 160
 Number of 2-fold excitations: 31675
 Number of 3-fold excitations: 3491644
 Number of 4-fold excitations: 199604301
 Number of 5-fold excitations: 6016578096
 Total number of determinants: 6219705877
 Calculation of coupling coefficients...
 Initial cluster amplitudes are read from unit 16.
 Length of intermediate file (Mbytes):          5911.6
 Reading integral list from unit 55...
 Sorting integrals...
 Sorting integrals...
 Sorting integrals...
 Sorting integrals...
 Energy of reference determinant [au]:     -74.634409649005
 Calculation of MP denominators...

 Starting CC iteration...
 ======================================================================
 Norm of residual vector:     0.00939006
 CPU time [min]:  7464.224                   Wall time [min]:  1264.206

 Iteration  1  CC energy:   -75.05617376  Energy decrease:   0.00000006
 ======================================================================

 Fatal error in exec mrcc.
 Program will stop.

 ************************ 2025-02-19 08:40:45 *************************
                   Error at the termination of mrcc.
 **********************************************************************
Program finished with exit code 1 at: Wed Feb 19 08:40:45 EST 2025
