Starting run at: Sat 03 Jan 2026 11:30:51 PM EST
 **********************************************************************
                          MRCC program system
 **********************************************************************
 
                              Written by
     Mihaly Kallay, Peter R. Nagy, David Mester, Laszlo Gyevi-Nagy,
        Jozsef Csoka, P. Bernat Szabo, Zoltan Rolik, Gyula Samu,
      Bence Hegely, Bence Ladoczki, Klara Petrov, Jozsef Csontos,
     Adam Ganyecz, Istvan Ladjanszki, Lorant Szegedy, Mate Farkas,
          Pal D. Mezei, Reka A. Horvath, and Balazs D. Lorincz
 
        Department of Physical Chemistry and Materials Science
            Budapest University of Technology and Economics
                  Budapest P.O.Box 91, H-1521 Hungary
 
                              www.mrcc.hu
 
                            Version: 25.1.1

 ************************ 2026-01-03 23:30:52 *************************
 Executing minp...

 Reading input from MINP...
 
 Input file:
 
basis=aCVDZ-EMSL-U
iface=cfour
uncontract=off
calc=CC(8)
ccprog=mrcc
mem=64GB
core=corr
itol=18
scftol=13
cctol=10
ccmaxit=999
scfmaxit=9999
scfiguess=ao
scftype=UHF
#rohftype=semicanonical
rest=2
charge=+0
mult=3
refdet=serialno
1-3
4,5

symm=4
occ=2,0,0,0,0,1,1,1/2,0,0,0,0,0,0,1
geom
O

#Li 1 R
#R=3.065

#unit=angstroms

tprint=0.01
verbosity=3
#nstate=4
 
 
 Checking keyword combinations...
 
 Keywords:
 
 active=none
 agrid=ld0006-ld0590
 agrid_pssp=ld0006-ld0194
 agrid_pssp_sm=ld0006-ld0074
 basis=acvdz-emsl-u
 basis_sm=none
 basopt=off
 bfbasis=none
 bfgsmem=10
 bfgstol=1.0d-3
 boysalg=jacobi
 bpcompo=0.985
 bpcompv=0.98
 bpdfo=0.985
 bpocc=0.985
 bppdo=0.985
 bppdv=0.98
 bpedo=0.985
 bpedv=0.98
 bp_subsyso=0.95
 bp_subsysv=0.95
 cabscorr=off
 cabsdual=off
 calc=cc(8)
 ccmaxit=999
 ccprog=mrcc
 ccsdalg=disk
 ccsdmkl=seq
 ccsdrest=off
 ccsdthreads=2
 cctol=10
 charge=+0
 cialg=disk
 ciguess=off
 cmpgrp=auto
 comprest=off
 coord_sys=ric
 core=corr
 corembed=off
 csapprox=off
 cvs=off
 dboc=off
 deltaf12=off
 delocsomofact=
 dendec=cholesky
 dens=0
 denscorr=0
 dfalg=lineq
 dfbasis_cab=none
 dfbasis_cor=none
 dfbasis_scf=none
 dfbasis_scf_sm=auto
 dfintran=ovirt
 dft=off
 dhexc=adc(2)
 diag=david
 docc=
 domrad=10.d0
 drpaalg=fit
 dual=off
 dual_df=off
 dyson=off
 ecp=auto
 edisp=off
 edisp_embed=off
 embed=off
 epairestfact=off
 epairscale=1.d0
 etemp=300
 epert=none
 eps=
 espcharge=off
 excrad=0.d0
 excrad_f12=0.d0
 excrad_fin=0.000000000D+00
 fastdbbsc=v2
 fitting=coulomb
 fmm=off
 fmmord=8
 fnonorb=
 freq=off
 gamma=1.d0
 gauss=spher
 geom=zmat
 gopt=off
 ghost=none
 gtol=7
 grdens=off
 grid=auto
 grid_sm=auto
 gridbatch_cos=2000
 grtol=10
 guido_ct=off
 hamilton=dc
 iface=cfour
 incore=off
 intalg=auto
 ip_ea=off
 itol=18
 laptol=1.d-2
 lccoporder=trffirst
 lcorthr=normal
 lccrest=off
 ldfgrad_tol=8
 lmp2dens=on
 lnoepso=0.d0
 lnoepsv=1e-6
 localcc=off
 localcorrsymm=off
 locintrf=disk
 mact=
 maxact=off
 maxdim=200
 maxex=0
 maxmicroit=100
 mcscfiguess=hf
 mem=64gb
 mmprog=
 molden=on
 mp2ongrid=off
 mpitasks=1
 mulmet=0
 mult=3
 nab=off
 nacto=0
 nactv=0
 naf_amp=3.16d-3
 naf_cor=off
 naf_f12=off
 naf_scf=off
 nafalg=albe
 nafdens=off
 naftyp=
 nchol=auto
 ndeps=1e-3
 nstate=1
 nsing=0
 nto=off
 ntrip=0
 num_grad=off
 occ=2,0,0,0,0,1,1,1/2,0,0,0,0,0,0,1
 occri=off
 oniom=off
 oniom_eechg=off
 oniom_pcm=off
 oniom_qcorr=off
 optalg=
 optmaxit=50
 optetol=1e-6
 optex=0
 optgtol=1e-4
 optstol=1e-3
 orblocc=off
 orbloce=off
 orbloco=off
 orblocv=off
 orblocguess=cholesky
 osveps=1e-3
 ovirt=off
 ovltol=1e-7
 ovosnorb=80.0
 pao_subsys_tol=1e-3
 pao_tol=1e-3
 pcm=off
 popul=off
 pressure=100000
 pssp=off
 ptfreq=0.0
 ptthreads=2
 qmreg=
 qmmm=off
 qro=off
 qscf=off
 redcost_exc=off
 redcost_tddft=off
 refdet=serialno
 rest=2
 rgrid=log3
 rism=off
 rohfcore=semicanonical
 rohftype=standard
 scfalg=auto
 scf_conv=auto
 scfdamp=0.0d0
 scfdamp_mode=off
 scfdamp_end=9999
 scfdamp_dampstep=0.d0
 scfdamp_dtol=0.0d0
 scfdamp_maxfact=0.0d0
 scfdamp_minfact=0.0d0
 scfdiis=on
 scfdiis_dtol=0.0d0
 scfdiis_end=9999
 scfdiis_start=2
 scfdiis_step=1
 scfdiis_watch=off
 scfdiis_wrange=10
 scfdiis_wlimit=5
 scfdiis_delmax=2
 scfdtol=14
 scfext=10
 scfguessdens=
 scfiguess=ao
 scfloc=off
 scflshift=0.20
 scflshift_end=8
 scflshift_dtol=0.0
 scflshift_gaptol=0.20
 scfmaxit=9999
 scftype=uhf
 scftol=13
 scspe=1.d0
 scsph=1.d0
 scsps=1.2d0
 scsps_t=1.2d0
 scspt=0.33333333333333
 scspt_t=0.33333333333333
 scspv=1.d0
 spairtol=1e-4
 sqmprog=
 subminp=top
 subsys_bopu=on
 symm=4
 talg=occ
 temp=298.15
 test=off
 theodore=off
 tlmo=0.999
 tpao=0.94
 tprint=0.01
 uncontract=off
 unit=angs
 usedisk=2
 verbosity=3
 wpairtol=0.100000000E-05
 ispstart=
 ispend=

 ************************ 2026-01-03 23:30:55 *************************
 Executing goldstone...

 Generation of CC equations in terms of H and T...
 Generation of antisymmetrized Goldstone diagrams...
 Number of diagrams in T^1 equations:    15
 Number of diagrams in T^2 equations:    38
 Number of diagrams in T^3 equations:    54
 Number of diagrams in T^4 equations:    81
 Number of diagrams in T^5 equations:   106
 Number of diagrams in T^6 equations:   142
 Number of diagrams in T^7 equations:   175
 Number of diagrams in T^8 equations:   215
 Translation of diagrams to factorized equations...
 Optimizing intermediate calculation...
 Number of floating-point operations per iteration step:   9.2568E+14
 Probable CPU time per iteration step (hours):         9256.76
 Required memory (Mbytes):       1124877.4
 Number of intermediates:                                 301
 Number of intermediates to be stored:                    109
 Length of intermediate file (Mbytes):         63733.2

 ************************ 2026-01-03 23:32:15 *************************
 Executing xmrcc...

 **********************************************************************
 CC(                     8 ) calculation 
 
 
 Allocation of        65536.0 Mbytes of memory...
 Number of spinorbitals:                    78
 Number of alpha electrons:                        5
 Number of beta electrons:                         3
 Spin multiplicity:                     2
 z-component of spin:  1.0
 Spatial symmetry:                      4
 Convergence criterion:  1.0E-10
 Construction of occupation graphs...
 Number of                     0 -fold excitations:                      1
 Number of                     1 -fold excitations:                     72
 Number of                     2 -fold excitations:                   4081
 Number of                     3 -fold excitations:                 130252
 Number of                     4 -fold excitations:                2316784
 Number of                     5 -fold excitations:               22225638
 Number of                     6 -fold excitations:              111783286
 Number of                     7 -fold excitations:              272651874
 Number of                     8 -fold excitations:              248346422
 Total number of configurations:              657458410
 Calculation of coupling coefficients...
 Length of intermediate file (Mbytes):         33020.9
 
 ======================================================================
 
 Memory requirements /Mbyte/: 
               Minimal        Optimal
 Real*8:    8184205.4748   8184205.4748
 Integer:       224.9951
 Total:     8184430.4699   8184430.4699
 

 ************************ 2026-01-03 23:32:24 *************************
 Executing goldstone...

 Generation of MRCC equations in terms of H and T...
 Generation of antisymmetrized Goldstone diagrams...
 Number of diagrams in T^1 equations:    15
 Number of diagrams in T^2 equations:    38
 Number of diagrams in T^3 equations:    54
 Number of diagrams in T^4 equations:    81
 Number of diagrams in T^5 equations:   106
 Number of diagrams in T^6 equations:   142
 Number of diagrams in T^7 equations:   175
 Number of diagrams in T^8 equations:   215
 Translation of diagrams to factorized equations...
 Number of restricted diagrams in T^1 equations:     30
 Number of restricted diagrams in T^2 equations:    129
 Number of restricted diagrams in T^3 equations:    306
 Number of restricted diagrams in T^4 equations:    674
 Number of restricted diagrams in T^5 equations:   1288
 Number of restricted diagrams in T^6 equations:   2347
 Number of restricted diagrams in T^7 equations:   3972
 Number of restricted diagrams in T^8 equations:   6459
 Optimizing intermediate calculation...
 Number of floating-point operations per iteration step:   9.0033E+14
 Probable CPU time per iteration step (hours):         9003.27
 Required memory (Mbytes):          6417.6
 Number of intermediates:                                2922
 Number of intermediates to be stored:                    809
 Length of intermediate file (Mbytes):        172164.0

 ************************ 2026-01-03 23:34:39 *************************
 Executing xmrcc...

 **********************************************************************
 MRCC(                     8 ) calculation 
 
 
 Allocation of        65536.0 Mbytes of memory...
 Number of spinorbitals:                    78
 Number of alpha electrons:                        5
 Number of beta electrons:                         3
 Number of active particles:                    36
 Number of active holes:                         0
 Spin multiplicity:                     2
 z-component of spin:  1.0
 Spatial symmetry:                      4
 Convergence criterion:  1.0E-10
 Construction of occupation graphs...
 Number of                     0 -fold excitations:                      1
 Number of                     1 -fold excitations:                     72
 Number of                     2 -fold excitations:                   4081
 Number of                     3 -fold excitations:                 130252
 Number of                     4 -fold excitations:                2316784
 Number of                     5 -fold excitations:               22225638
 Number of                     6 -fold excitations:              111783286
 Number of                     7 -fold excitations:              272651874
 Number of                     8 -fold excitations:              248346422
 Total number of configurations:              657458410
 Calculation of coupling coefficients...
 Length of intermediate file (Mbytes):        128292.8
 
 ======================================================================
 
 Memory requirements /Mbyte/: 
               Minimal        Optimal
 Real*8:      19674.3210     19674.3210
 Integer:       337.1039
 Total:       20011.4249     20011.4249
 

 ************************ 2026-01-03 23:36:24 *************************
 Executing goldstone...

 Generation of MRCC equations in terms of H and T...
 Generation of antisymmetrized Goldstone diagrams...
 Number of diagrams in T^1 equations:    15
 Number of diagrams in T^2 equations:    34
 Number of diagrams in T^3 equations:     2
 Translation of diagrams to factorized equations...
 Number of restricted diagrams in T^1 equations:     78
 Number of restricted diagrams in T^2 equations:    299
 Number of restricted diagrams in T^3 equations:     18
 Optimizing intermediate calculation...
 Number of floating-point operations per iteration step:   4.5255E+07
 Probable CPU time per iteration step (hours):            0.00
 Required memory (Mbytes):           200.9
 Number of intermediates:                                 239
 Number of intermediates to be stored:                    105
 Length of intermediate file (Mbytes):             4.8

 ************************ 2026-01-03 23:37:15 *************************
 Executing xmrcc...

 **********************************************************************
 MRCC(                     3 ) calculation 
 
 
 Allocation of        65536.0 Mbytes of memory...
 Number of spinorbitals:                    78
 Number of alpha electrons:                        5
 Number of beta electrons:                         3
 Number of active particles:                    36
 Number of active holes:                         0
 Spin multiplicity:                     2
 z-component of spin:  1.0
 Spatial symmetry:                      4
 Convergence criterion:  1.0E-10
 Construction of occupation graphs...
 Number of                     0 -fold excitations:                      1
 Number of                     1 -fold excitations:                     72
 Number of                     2 -fold excitations:                   4081
 Total number of configurations:                   4154
 Calculation of coupling coefficients...
 Length of intermediate file (Mbytes):             5.3
 
 ======================================================================
 
 Spin case  1   Alpha:  0   Beta:  3
 Number of excitations:                    104
 Spin case  2   Alpha:  1   Beta:  2
 Number of excitations:                   5194
 Spin case  3   Alpha:  2   Beta:  1
 Number of excitations:                  10403
 Spin case  4   Alpha:  3   Beta:  0
 Number of excitations:                   1040
 Spin case  5   Alpha:  0   Beta:  3
 Number of excitations:                    346
 Spin case  6   Alpha:  1   Beta:  2
 Number of excitations:                   4641
 Spin case  7   Alpha:  1   Beta:  2
 Number of excitations:                  11494
 Spin case  8   Alpha:  2   Beta:  1
 Number of excitations:                  19988
 Spin case  9   Alpha:  2   Beta:  1
 Number of excitations:                  10546
 Spin case 10   Alpha:  3   Beta:  0
 Number of excitations:                   3009
 Spin case 11   Alpha:  0   Beta:  3
 Number of excitations:                    363
 Spin case 12   Alpha:  1   Beta:  2
 Number of excitations:                  10663
 Spin case 13   Alpha:  1   Beta:  2
 Number of excitations:                   5716
 Spin case 14   Alpha:  2   Beta:  1
 Number of excitations:                   8484
 Spin case 15   Alpha:  2   Beta:  1
 Number of excitations:                  20560
 Spin case 16   Alpha:  3   Beta:  0
 Number of excitations:                   2502
 Spin case 17   Alpha:  0   Beta:  3
 Number of excitations:                    112
 Spin case 18   Alpha:  1   Beta:  2
 Number of excitations:                   5520
 Spin case 19   Alpha:  2   Beta:  1
 Number of excitations:                   8916
 Spin case 20   Alpha:  3   Beta:  0
 Number of excitations:                    651
 Number of                     3 -fold excitations:                 130252
 
 Memory requirements /Mbyte/: 
               Minimal        Optimal
 Real*8:         51.9725        51.9725
 Integer:        31.1419
 Total:          83.1143        83.1143
 

 ************************ 2026-01-03 23:37:15 *************************
 Executing mrcc...

 **********************************************************************
 CCSD(T) calculation                                                    
 
 
 OpenMP parallel version is running.
 Number of CPU cores:  48
 Allocation of           52.0 Mbytes of memory...
 Number of spinorbitals:  78
 Number of alpha electrons:  5
 Number of beta  electrons:  3
 Number of active particles:                    36
 Number of active holes:                         0
 Spin multiplicity: 3
 z-component of spin:  1.0
 Spatial symmetry: 4
 Convergence criterion:  1.0E-10
 Construction of occupation graphs...
 Number of 0-fold excitations: 1
 Number of 1-fold excitations: 72
 Number of 2-fold excitations: 4081
 Total number of determinants: 4154
 Calculation of coupling coefficients...
 Initial cluster amplitudes are generated.
 Length of intermediate file (Mbytes):       5.3
 Reading integral list from unit 55...
 Sorting integrals...
 Sorting integrals...
 Sorting integrals...
 Sorting integrals...
 Energy of reference determinant [au]:     -74.797689959791
 Calculation of MP denominators...
 
 Starting CC iteration...
 ==============================================================================
 Norm of residual vector:     2.49199227
 CPU time [hr]:     0.018                          Wall time [hr]:     0.001
 
 Iteration  1  CC energy:   -74.96563228          Energy decrease:   0.16794232
 Step       1  CC energy:   -74.965632280948753   Energy change  :   0.16794232
 ==============================================================================
 Norm of residual vector:     0.15283931
 CPU time [hr]:     0.024                          Wall time [hr]:     0.001
 
 Iteration  2  CC energy:   -74.97991265          Energy decrease:   0.01428037
 Step       2  CC energy:   -74.979912647941688   Energy change  :   0.01428037
 ==============================================================================
 Norm of residual vector:     0.02900208
 CPU time [hr]:     0.033                          Wall time [hr]:     0.001
 
 Iteration  3  CC energy:   -74.98240440          Energy decrease:   0.00249175
 Step       3  CC energy:   -74.982404402125184   Energy change  :   0.00249175
 ==============================================================================
 Norm of residual vector:     0.00913392
 CPU time [hr]:     0.038                          Wall time [hr]:     0.001
 
 Iteration  4  CC energy:   -74.98272729          Energy decrease:   0.00032289
 Step       4  CC energy:   -74.982727294285226   Energy change  :   0.00032289
 ==============================================================================
 Norm of residual vector:     0.00389250
 CPU time [hr]:     0.043                          Wall time [hr]:     0.001
 
 Iteration  5  CC energy:   -74.98272145          Energy decrease:   0.00000584
 Step       5  CC energy:   -74.982721453107033   Energy change  :   0.00000584
 ==============================================================================
 Norm of residual vector:     0.00139325
 CPU time [hr]:     0.049                          Wall time [hr]:     0.001
 
 Iteration  6  CC energy:   -74.98275161          Energy decrease:   0.00003016
 Step       6  CC energy:   -74.982751612807789   Energy change  :   0.00003016
 ==============================================================================
 Norm of residual vector:     0.00045110
 CPU time [hr]:     0.055                          Wall time [hr]:     0.002
 
 Iteration  7  CC energy:   -74.98275673          Energy decrease:   0.00000512
 Step       7  CC energy:   -74.982756734025131   Energy change  :   0.00000512
 ==============================================================================
 Norm of residual vector:     0.00012650
 CPU time [hr]:     0.060                          Wall time [hr]:     0.002
 
 Iteration  8  CC energy:   -74.98275711          Energy decrease:   0.00000038
 Step       8  CC energy:   -74.982757114231788   Energy change  :   0.00000038
 ==============================================================================
 Norm of residual vector:     0.00003562
 CPU time [hr]:     0.066                          Wall time [hr]:     0.002
 
 Iteration  9  CC energy:   -74.98275689          Energy decrease:   0.00000022
 Step       9  CC energy:   -74.982756891130634   Energy change  :   0.00000022
 ==============================================================================
 Norm of residual vector:     0.00001011
 CPU time [hr]:     0.072                          Wall time [hr]:     0.002
 
 Iteration 10  CC energy:   -74.98275664          Energy decrease:   0.00000025
 Step      10  CC energy:   -74.982756637629237   Energy change  :   0.00000025
 ==============================================================================
 Norm of residual vector:     0.00000226
 CPU time [hr]:     0.077                          Wall time [hr]:     0.002
 
 Iteration 11  CC energy:   -74.98275668          Energy decrease:   0.00000004
 Step      11  CC energy:   -74.982756677059854   Energy change  :   0.00000004
 ==============================================================================
 Norm of residual vector:     0.00000053
 CPU time [hr]:     0.083                          Wall time [hr]:     0.002
 
 Iteration 12  CC energy:   -74.98275667          Energy decrease:   0.00000001
 Step      12  CC energy:   -74.982756670234025   Energy change  :   0.00000001
 ==============================================================================
 Norm of residual vector:     0.00000017
 CPU time [hr]:     0.088                          Wall time [hr]:     0.002
 
 Iteration 13  CC energy:   -74.98275667          Energy decrease:   9.4687E-11
 Step      13  CC energy:   -74.982756670139338   Energy change  :   9.4687E-11
 ==============================================================================
 Norm of residual vector:     0.00000005
 CPU time [hr]:     0.094                          Wall time [hr]:     0.002
 
 Iteration 14  CC energy:   -74.98275667          Energy decrease:   1.5155E-09
 Step      14  CC energy:   -74.982756671654869   Energy change  :   1.5155E-09
 ==============================================================================
 Norm of residual vector:     0.00000001
 CPU time [hr]:     0.099                          Wall time [hr]:     0.002
 
 Iteration 15  CC energy:   -74.98275667          Energy decrease:   2.1586E-10
 Step      15  CC energy:   -74.982756671439006   Energy change  :   2.1586E-10
 ==============================================================================
 Norm of residual vector:     2.4067E-09
 CPU time [hr]:     0.103                          Wall time [hr]:     0.003
 
 Iteration 16  CC energy:   -74.98275667          Energy decrease:   1.9227E-11
 Step      16  CC energy:   -74.982756671458233   Energy change  :   1.9227E-11
 ==============================================================================
 Norm of residual vector:     5.1663E-10
 CPU time [hr]:     0.107                          Wall time [hr]:     0.003
 
 Iteration 17  CC energy:   -74.98275667          Energy decrease:   6.9633E-13
 Step      17  CC energy:   -74.982756671458930   Energy change  :   6.9633E-13
 ==============================================================================
 Norm of residual vector:     1.2365E-10
 CPU time [hr]:     0.111                          Wall time [hr]:     0.003
 
 Iteration 18  CC energy:   -74.98275667          Energy decrease:   1.5916E-12
 Step      18  CC energy:   -74.982756671457338   Energy change  :   1.5916E-12
 ==============================================================================
 Norm of residual vector:     2.9886E-11
 CPU time [hr]:     0.116                          Wall time [hr]:     0.003
 
 Iteration 19  CC energy:   -74.98275667          Energy decrease:   8.9528E-13
 Step      19  CC energy:   -74.982756671456443   Energy change  :   8.9528E-13
 ==============================================================================
 
 Iteration has converged in 19 steps.
 
 Final results:
 Total CCSD energy [au]:                      -74.982756671456
 
 Perturbative corrections are calculated...
 ==============================================================================
 Spin case  1   Alpha:  0   Beta:  3
 Number of excitations:        104
 ispcorr1 :                     0.000000000000000000
 ispcorr2 :                     0.000000000000000000
 corr1    :                     0.000000000000000000
 corr2    :                     0.000000000000000000
 CPU time [min]:     6.969                   Wall time [min]:     0.172
 ======================================================================
 Spin case  2   Alpha:  1   Beta:  2
 Number of excitations:        5194
 ispcorr1 :                     0.000000000000000000
 ispcorr2 :                     0.000000000000000000
 corr1    :                     0.000000000000000000
 corr2    :                     0.000000000000000000
 CPU time [min]:     6.989                   Wall time [min]:     0.172
 ======================================================================
 Spin case  3   Alpha:  2   Beta:  1
 Number of excitations:        10403
 ispcorr1 :                     0.000000000000000000
 ispcorr2 :                     0.000000000000000000
 corr1    :                     0.000000000000000000
 corr2    :                     0.000000000000000000
 CPU time [min]:     7.014                   Wall time [min]:     0.173
 ======================================================================
 Spin case  4   Alpha:  3   Beta:  0
 Number of excitations:        1040
 ispcorr1 :                     0.000000000000000000
 ispcorr2 :                     0.000000000000000000
 corr1    :                     0.000000000000000000
 corr2    :                     0.000000000000000000
 CPU time [min]:     7.026                   Wall time [min]:     0.173
 ======================================================================
 Spin case  5   Alpha:  0   Beta:  3
 Number of excitations:        346
 ispcorr1 :                     0.000000000000000000
 ispcorr2 :                     0.000000000000000000
 corr1    :                     0.000000000000000000
 corr2    :                     0.000000000000000000
 CPU time [min]:     7.042                   Wall time [min]:     0.173
 ======================================================================
 Spin case  6   Alpha:  1   Beta:  2
 Number of excitations:        4641
 ispcorr1 :                     0.000000000000000000
 ispcorr2 :                     0.000000000000000000
 corr1    :                     0.000000000000000000
 corr2    :                     0.000000000000000000
 CPU time [min]:     7.064                   Wall time [min]:     0.174
 ======================================================================
 Spin case  7   Alpha:  1   Beta:  2
 Number of excitations:        11494
 ispcorr1 :                     0.000000000000000000
 ispcorr2 :                     0.000000000000000000
 corr1    :                     0.000000000000000000
 corr2    :                     0.000000000000000000
 CPU time [min]:     7.101                   Wall time [min]:     0.175
 ======================================================================
 Spin case  8   Alpha:  2   Beta:  1
 Number of excitations:        19988
 ispcorr1 :                     0.000000000000000000
 ispcorr2 :                     0.000000000000000000
 corr1    :                     0.000000000000000000
 corr2    :                     0.000000000000000000
 CPU time [min]:     7.141                   Wall time [min]:     0.176
 ======================================================================
 Spin case  9   Alpha:  2   Beta:  1
 Number of excitations:        10546
 ispcorr1 :                     0.000000000000000000
 ispcorr2 :                     0.000000000000000000
 corr1    :                     0.000000000000000000
 corr2    :                     0.000000000000000000
 CPU time [min]:     7.166                   Wall time [min]:     0.176
 ======================================================================
 Spin case 10   Alpha:  3   Beta:  0
 Number of excitations:        3009
 ispcorr1 :                     0.000000000000000000
 ispcorr2 :                     0.000000000000000000
 corr1    :                     0.000000000000000000
 corr2    :                     0.000000000000000000
 CPU time [min]:     7.186                   Wall time [min]:     0.176
 ======================================================================
 Spin case 11   Alpha:  0   Beta:  3
 Number of excitations:        363
 ispcorr1 :                     0.000000000000000000
 ispcorr2 :                     0.000000000000000000
 corr1    :                     0.000000000000000000
 corr2    :                     0.000000000000000000
 CPU time [min]:     7.215                   Wall time [min]:     0.177
 ======================================================================
 Spin case 12   Alpha:  1   Beta:  2
 Number of excitations:        10663
 ispcorr1 :                     0.000000000000000000
 ispcorr2 :                     0.000000000000000000
 corr1    :                     0.000000000000000000
 corr2    :                     0.000000000000000000
 CPU time [min]:     7.248                   Wall time [min]:     0.178
 ======================================================================
 Spin case 13   Alpha:  1   Beta:  2
 Number of excitations:        5716
 ispcorr1 :                     0.000000000000000000
 ispcorr2 :                     0.000000000000000000
 corr1    :                     0.000000000000000000
 corr2    :                     0.000000000000000000
 CPU time [min]:     7.272                   Wall time [min]:     0.178
 ======================================================================
 Spin case 14   Alpha:  2   Beta:  1
 Number of excitations:        8484
 ispcorr1 :                     0.000000000000000000
 ispcorr2 :                     0.000000000000000000
 corr1    :                     0.000000000000000000
 corr2    :                     0.000000000000000000
 CPU time [min]:     7.297                   Wall time [min]:     0.179
 ======================================================================
 Spin case 15   Alpha:  2   Beta:  1
 Number of excitations:        20560
 ispcorr1 :                     0.000000000000000000
 ispcorr2 :                     0.000000000000000000
 corr1    :                     0.000000000000000000
 corr2    :                     0.000000000000000000
 CPU time [min]:     7.335                   Wall time [min]:     0.180
 ======================================================================
 Spin case 16   Alpha:  3   Beta:  0
 Number of excitations:        2502
 ispcorr1 :                     0.000000000000000000
 ispcorr2 :                     0.000000000000000000
 corr1    :                     0.000000000000000000
 corr2    :                     0.000000000000000000
 CPU time [min]:     7.356                   Wall time [min]:     0.180
 ======================================================================
 Spin case 17   Alpha:  0   Beta:  3
 Number of excitations:        112
 ispcorr1 :                     0.000000000000000000
 ispcorr2 :                     0.000000000000000000
 corr1    :                     0.000000000000000000
 corr2    :                     0.000000000000000000
 CPU time [min]:     7.367                   Wall time [min]:     0.180
 ======================================================================
 Spin case 18   Alpha:  1   Beta:  2
 Number of excitations:        5520
 ispcorr1 :                     0.000000000000000000
 ispcorr2 :                     0.000000000000000000
 corr1    :                     0.000000000000000000
 corr2    :                     0.000000000000000000
 CPU time [min]:     7.388                   Wall time [min]:     0.181
 ======================================================================
 Spin case 19   Alpha:  2   Beta:  1
 Number of excitations:        8916
 ispcorr1 :                     0.000000000000000000
 ispcorr2 :                     0.000000000000000000
 corr1    :                     0.000000000000000000
 corr2    :                     0.000000000000000000
 CPU time [min]:     7.414                   Wall time [min]:     0.181
 ======================================================================
 Spin case 20   Alpha:  3   Beta:  0
 Number of excitations:        651
 ispcorr1 :                     0.000000000000000000
 ispcorr2 :                     0.000000000000000000
 corr1    :                     0.000000000000000000
 corr2    :                     0.000000000000000000
 CPU time [min]:     7.429                   Wall time [min]:     0.182
 ======================================================================
 Number of 3-fold excitations: 130252
 
 corr1 :                     0.000000004515226788
 corr3 :                     0.000000000000000000
 corr4 :                     0.000000000000000000
 corr2 :                    -0.000000089092255007
 
 corr1 :                     0.000007767563105932
 corr3 :                     0.000000000000000000
 corr4 :                     0.000000000000000000
 corr2 :                    -0.000327800501269858
 
 corr1 :                     0.000084518131755817
 corr3 :                     0.000000000000000000
 corr4 :                     0.000000000000000000
 corr2 :                    -0.001496074199261133
 
 corr1 :                     0.000098932382117857
 corr3 :                     0.000000000000000000
 corr4 :                     0.000000000000000000
 corr2 :                    -0.001593564642673202
 
 corr1 :                     0.000098926800548244
 corr3 :                     0.000000000000000000
 corr4 :                     0.000000000000000000
 corr2 :                    -0.001594086529841802
 
 corr1 :                     0.000099235330778394
 corr3 :                     0.000000000000000000
 corr4 :                     0.000000000000000000
 corr2 :                    -0.001626790922188840
 
 corr1 :                     0.000098936501703960
 corr3 :                     0.000000000000000000
 corr4 :                     0.000000000000000000
 corr2 :                    -0.001763335907365931
 
 corr1 :                     0.000096660240824723
 corr3 :                     0.000000000000000000
 corr4 :                     0.000000000000000000
 corr2 :                    -0.001928438705881834
 
 corr1 :                     0.000095017079604243
 corr3 :                     0.000000000000000000
 corr4 :                     0.000000000000000000
 corr2 :                    -0.002169257231580212
 
 corr1 :                     0.000092458993710476
 corr3 :                     0.000000000000000000
 corr4 :                     0.000000000000000000
 corr2 :                    -0.002195207092528420
 
 corr1 :                     0.000092456083626753
 corr3 :                     0.000000000000000000
 corr4 :                     0.000000000000000000
 corr2 :                    -0.002195879643360953
 
 corr1 :                     0.000093279191798720
 corr3 :                     0.000000000000000000
 corr4 :                     0.000000000000000000
 corr2 :                    -0.002242496075437641
 
 corr1 :                     0.000091776279699292
 corr3 :                     0.000000000000000000
 corr4 :                     0.000000000000000000
 corr2 :                    -0.002279617440875808
 
 corr1 :                     0.000092836787055873
 corr3 :                     0.000000000000000000
 corr4 :                     0.000000000000000000
 corr2 :                    -0.002346250627887340
 
 corr1 :                     0.000084276022490589
 corr3 :                     0.000000000000000000
 corr4 :                     0.000000000000000000
 corr2 :                    -0.002531018937104903
 
 corr1 :                     0.000081899109318012
 corr3 :                     0.000000000000000000
 corr4 :                     0.000000000000000000
 corr2 :                    -0.002561257331793292
 
 corr1 :                     0.000081905465182070
 corr3 :                     0.000000000000000000
 corr4 :                     0.000000000000000000
 corr2 :                    -0.002561296389815048
 
 corr1 :                     0.000082737355961316
 corr3 :                     0.000000000000000000
 corr4 :                     0.000000000000000000
 corr2 :                    -0.002571163264430688
 
 corr1 :                     0.000085161278659667
 corr3 :                     0.000000000000000000
 corr4 :                     0.000000000000000000
 corr2 :                    -0.002603634440029831
 
 corr1 :                     0.000085622867051489
 corr3 :                     0.000000000000000000
 corr4 :                     0.000000000000000000
 corr2 :                    -0.002609204684579518
 
 CPU time [min]:     7.453                   Wall time [min]:     0.182
 
 Total CCSD[T] energy [au]:                   -74.985365876141
 Total CCSD(T) energy [au]:                   -74.985280253274
 
 Dominant cluster amplitudes
 Printing threshold:  1.00E-02
 
    1.000000  Reference determinant                                     
    0.012388  3b -> 9b                                                  
    0.012004  5a -> 8a                                                  
    0.012004  4a -> 7a                                                  
    0.014698  3a -> 9a                                                  
    0.011516  2b 3b -> 13b 4b                                           
    0.011567  4a 3b -> 9a 4b                                            
   -0.021089  5a 2b -> 11a 4b                                           
   -0.015942  5a 2b -> 20a 4b                                           
    0.021089  4a 2b -> 10a 4b                                           
    0.011181  4a 2b -> 14a 4b                                           
    0.015942  4a 2b -> 19a 4b                                           
   -0.020354  3a 2b -> 13a 4b                                           
   -0.015378  3a 2b -> 22a 4b                                           
   -0.011516  2b 3b -> 5b 12b                                           
    0.010794  2b 3b -> 17b 18b                                          
   -0.010080  2a 2b -> 18a 6b                                           
   -0.010001  2a 2b -> 6a 18b                                           
   -0.017744  2a 2b -> 18a 18b                                          
   -0.018941  3a 3b -> 14a 10b                                          
   -0.010676  3a 3b -> 23a 10b                                          
   -0.011503  3a 3b -> 18a 18b                                          
   -0.011139  3a 3b -> 14a 19b                                          
   -0.015297  3a 3b -> 23a 19b                                          
   -0.014746  3a 3b -> 13a 13b                                          
   -0.011811  3a 3b -> 22a 22b                                          
   -0.014746  3a 3b -> 12a 12b                                          
   -0.011811  3a 3b -> 21a 21b                                          
   -0.011131  2a 2b -> 16a 16b                                          
   -0.011131  2a 2b -> 15a 15b                                          
   -0.018706  3a 3b -> 9a 9b                                            
   -0.024188  3a 3b -> 17a 9b                                           
   -0.022538  3a 3b -> 9a 17b                                           
   -0.039966  3a 3b -> 17a 17b                                          
    0.010454  4a 3b -> 10a 13b                                          
   -0.010364  4a 3b -> 13a 10b                                          
   -0.010454  4a 3b -> 11a 12b                                          
   -0.012647  4a 3b -> 7a 9b                                            
   -0.017843  4a 3b -> 15a 9b                                           
   -0.015189  4a 3b -> 7a 17b                                           
   -0.028199  4a 3b -> 15a 17b                                          
   -0.011014  4a 3b -> 9a 7b                                            
   -0.010454  5a 3b -> 10a 12b                                          
   -0.010364  5a 3b -> 12a 10b                                          
   -0.010454  5a 3b -> 11a 13b                                          
   -0.012647  5a 3b -> 8a 9b                                            
   -0.017843  5a 3b -> 16a 9b                                           
   -0.015189  5a 3b -> 8a 17b                                           
   -0.028199  5a 3b -> 16a 17b                                          
    0.011567  5a 3b -> 9a 5b                                            
   -0.011014  5a 3b -> 9a 8b                                            
   -0.021089  5a 2b -> 10a 5b                                           
    0.011181  5a 2b -> 14a 5b                                           
   -0.015942  5a 2b -> 19a 5b                                           
   -0.010335  5a 2b -> 6a 8b                                            
    0.017165  5a 2b -> 10a 8b                                           
    0.014714  5a 2b -> 19a 8b                                           
   -0.012063  5a 2b -> 18a 16b                                          
    0.017165  5a 2b -> 11a 7b                                           
    0.014714  5a 2b -> 20a 7b                                           
   -0.014506  5a 2b -> 16a 6b                                           
   -0.010033  5a 2b -> 8a 18b                                           
   -0.021868  5a 2b -> 16a 18b                                          
   -0.010335  4a 2b -> 6a 7b                                            
   -0.017165  4a 2b -> 10a 7b                                           
   -0.014714  4a 2b -> 19a 7b                                           
   -0.012063  4a 2b -> 18a 15b                                          
   -0.021089  4a 2b -> 11a 5b                                           
   -0.015942  4a 2b -> 20a 5b                                           
    0.017165  4a 2b -> 11a 8b                                           
    0.014714  4a 2b -> 20a 8b                                           
   -0.014506  4a 2b -> 15a 6b                                           
   -0.010033  4a 2b -> 7a 18b                                           
   -0.021868  4a 2b -> 15a 18b                                          
   -0.010066  2a 3b -> 6a 9b                                            
   -0.012061  2a 3b -> 18a 9b                                           
   -0.014485  2a 3b -> 6a 17b                                           
   -0.022761  2a 3b -> 18a 17b                                          
   -0.011372  3a 2b -> 18a 17b                                          
    0.016458  3a 2b -> 13a 7b                                           
    0.014219  3a 2b -> 22a 7b                                           
   -0.020354  3a 2b -> 12a 5b                                           
   -0.015378  3a 2b -> 21a 5b                                           
    0.016458  3a 2b -> 12a 8b                                           
    0.014219  3a 2b -> 21a 8b                                           
   -0.010932  2a 3b -> 17a 18b                                          
   -0.014941  3a 2b -> 17a 6b                                           
   -0.010665  3a 2b -> 9a 18b                                           
   -0.022297  3a 2b -> 17a 18b                                          
    0.013327  3a 4a -> 13a 14a                                          
   -0.012874  3a 4a -> 9a 15a                                           
    0.011798  3a 4a -> 7a 17a                                           
    0.021564  3a 4a -> 15a 17a                                          
    0.010863  3a 4a -> 22a 23a                                          
    0.013327  3a 5a -> 12a 14a                                          
   -0.012874  3a 5a -> 9a 16a                                           
    0.011798  3a 5a -> 8a 17a                                           
    0.021564  3a 5a -> 16a 17a                                          
    0.010863  3a 5a -> 21a 23a                                          
    0.013820  4a 5a -> 10a 11a                                          
    0.011864  4a 5a -> 8a 15a                                           
   -0.011864  4a 5a -> 7a 16a                                           
   -0.021823  4a 5a -> 15a 16a                                          
    0.012182  4a 5a -> 19a 20a                                          
    0.012275  2a 5a -> 16a 18a                                          
    0.012275  2a 4a -> 15a 18a                                          
    0.012285  2a 3a -> 17a 18a                                          

 ************************ 2026-01-03 23:37:26 *************************
 Executing goldstone...

 Generation of MRCC equations in terms of H and T...
 Generation of antisymmetrized Goldstone diagrams...
 Number of diagrams in T^1 equations:    15
 Number of diagrams in T^2 equations:    38
 Number of diagrams in T^3 equations:    50
 Number of diagrams in T^4 equations:     5
 Translation of diagrams to factorized equations...
 Number of restricted diagrams in T^1 equations:     78
 Number of restricted diagrams in T^2 equations:    344
 Number of restricted diagrams in T^3 equations:    830
 Number of restricted diagrams in T^4 equations:     86
 Optimizing intermediate calculation...
 Number of floating-point operations per iteration step:   4.1299E+09
 Probable CPU time per iteration step (hours):            0.04
 Required memory (Mbytes):           200.9
 Number of intermediates:                                 543
 Number of intermediates to be stored:                    211
 Length of intermediate file (Mbytes):            16.4

 ************************ 2026-01-03 23:37:28 *************************
 Executing xmrcc...

 **********************************************************************
 MRCC(                     4 ) calculation 
 
 
 Allocation of        65536.0 Mbytes of memory...
 Number of spinorbitals:                    78
 Number of alpha electrons:                        5
 Number of beta electrons:                         3
 Number of active particles:                    36
 Number of active holes:                         0
 Spin multiplicity:                     2
 z-component of spin:  1.0
 Spatial symmetry:                      4
 Convergence criterion:  1.0E-10
 Construction of occupation graphs...
 Number of                     0 -fold excitations:                      1
 Number of                     1 -fold excitations:                     72
 Number of                     2 -fold excitations:                   4081
 Number of                     3 -fold excitations:                 130252
 Total number of configurations:                 134406
 Calculation of coupling coefficients...
 Length of intermediate file (Mbytes):            15.9
 
 ======================================================================
 
 Spin case  1   Alpha:  1   Beta:  3
 Number of excitations:                   9112
 Spin case  2   Alpha:  2   Beta:  2
 Number of excitations:                  87796
 Spin case  3   Alpha:  3   Beta:  1
 Number of excitations:                  55216
 Spin case  4   Alpha:  4   Beta:  0
 Number of excitations:                   1980
 Spin case  5   Alpha:  1   Beta:  3
 Number of excitations:                   8084
 Spin case  6   Alpha:  1   Beta:  3
 Number of excitations:                  30928
 Spin case  7   Alpha:  2   Beta:  2
 Number of excitations:                 165490
 Spin case  8   Alpha:  2   Beta:  2
 Number of excitations:                 186430
 Spin case  9   Alpha:  3   Beta:  1
 Number of excitations:                 164426
 Spin case 10   Alpha:  3   Beta:  1
 Number of excitations:                  55488
 Spin case 11   Alpha:  4   Beta:  0
 Number of excitations:                   8320
 Spin case 12   Alpha:  1   Beta:  3
 Number of excitations:                  27450
 Spin case 13   Alpha:  1   Beta:  3
 Number of excitations:                  31232
 Spin case 14   Alpha:  2   Beta:  2
 Number of excitations:                  69009
 Spin case 15   Alpha:  2   Beta:  2
 Number of excitations:                 353740
 Spin case 16   Alpha:  2   Beta:  2
 Number of excitations:                  88309
 Spin case 17   Alpha:  3   Beta:  1
 Number of excitations:                 143496
 Spin case 18   Alpha:  3   Beta:  1
 Number of excitations:                 163648
 Spin case 19   Alpha:  4   Beta:  0
 Number of excitations:                  11043
 Spin case 20   Alpha:  1   Beta:  3
 Number of excitations:                  27998
 Spin case 21   Alpha:  1   Beta:  3
 Number of excitations:                   9376
 Spin case 22   Alpha:  2   Beta:  2
 Number of excitations:                 148458
 Spin case 23   Alpha:  2   Beta:  2
 Number of excitations:                 169018
 Spin case 24   Alpha:  3   Beta:  1
 Number of excitations:                  37014
 Spin case 25   Alpha:  3   Beta:  1
 Number of excitations:                 140904
 Spin case 26   Alpha:  4   Beta:  0
 Number of excitations:                   5688
 Spin case 27   Alpha:  1   Beta:  3
 Number of excitations:                   8464
 Spin case 28   Alpha:  2   Beta:  2
 Number of excitations:                  71475
 Spin case 29   Alpha:  3   Beta:  1
 Number of excitations:                  36148
 Spin case 30   Alpha:  4   Beta:  0
 Number of excitations:                   1044
 Number of                     4 -fold excitations:                2316784
 
 Memory requirements /Mbyte/: 
               Minimal        Optimal
 Real*8:        234.6974       234.6974
 Integer:        52.5192
 Total:         287.2166       287.2166
 

 ************************ 2026-01-03 23:37:31 *************************
 Executing mrcc...

 **********************************************************************
 CCSDT(Q) calculation                                                   
 
 
 OpenMP parallel version is running.
 Number of CPU cores:  48
 Allocation of          234.7 Mbytes of memory...
 Number of spinorbitals:  78
 Number of alpha electrons:  5
 Number of beta  electrons:  3
 Number of active particles:                    36
 Number of active holes:                         0
 Spin multiplicity: 3
 z-component of spin:  1.0
 Spatial symmetry: 4
 Convergence criterion:  1.0E-10
 Construction of occupation graphs...
 Number of 0-fold excitations: 1
 Number of 1-fold excitations: 72
 Number of 2-fold excitations: 4081
 Number of 3-fold excitations: 130252
 Total number of determinants: 134406
 Calculation of coupling coefficients...
 Initial cluster amplitudes are read from unit 16.
 Length of intermediate file (Mbytes):      15.9
 Reading integral list from unit 55...
 Sorting integrals...
 Sorting integrals...
 Sorting integrals...
 Sorting integrals...
 Energy of reference determinant [au]:     -74.797689959791
 Calculation of MP denominators...
 
 Starting CC iteration...
 ==============================================================================
 Norm of residual vector:     0.17977761
 CPU time [hr]:     0.071                          Wall time [hr]:     0.002
 
 Iteration  1  CC energy:   -74.98275667          Energy decrease:   5.6843E-14
 Step       1  CC energy:   -74.982756671456386   Energy change  :   5.6843E-14
 ==============================================================================
 Norm of residual vector:     0.02576964
 CPU time [hr]:     0.123                          Wall time [hr]:     0.003
 
 Iteration  2  CC energy:   -74.98485998          Energy decrease:   0.00210331
 Step       2  CC energy:   -74.984859978260829   Energy change  :   0.00210331
 ==============================================================================
 Norm of residual vector:     0.00892509
 CPU time [hr]:     0.183                          Wall time [hr]:     0.004
 
 Iteration  3  CC energy:   -74.98537156          Energy decrease:   0.00051158
 Step       3  CC energy:   -74.985371558145417   Energy change  :   0.00051158
 ==============================================================================
 Norm of residual vector:     0.00280223
 CPU time [hr]:     0.259                          Wall time [hr]:     0.006
 
 Iteration  4  CC energy:   -74.98549822          Energy decrease:   0.00012666
 Step       4  CC energy:   -74.985498219489145   Energy change  :   0.00012666
 ==============================================================================
 Norm of residual vector:     0.00136441
 CPU time [hr]:     0.342                          Wall time [hr]:     0.008
 
 Iteration  5  CC energy:   -74.98554878          Energy decrease:   0.00005056
 Step       5  CC energy:   -74.985548784336473   Energy change  :   0.00005056
 ==============================================================================
 Norm of residual vector:     0.00070144
 CPU time [hr]:     0.407                          Wall time [hr]:     0.009
 
 Iteration  6  CC energy:   -74.98555787          Energy decrease:   0.00000909
 Step       6  CC energy:   -74.985557872224462   Energy change  :   0.00000909
 ==============================================================================
 Norm of residual vector:     0.00027608
 CPU time [hr]:     0.469                          Wall time [hr]:     0.010
 
 Iteration  7  CC energy:   -74.98555756          Energy decrease:   0.00000031
 Step       7  CC energy:   -74.985557558040099   Energy change  :   0.00000031
 ==============================================================================
 Norm of residual vector:     0.00009851
 CPU time [hr]:     0.520                          Wall time [hr]:     0.011
 
 Iteration  8  CC energy:   -74.98555801          Energy decrease:   0.00000045
 Step       8  CC energy:   -74.985558007488990   Energy change  :   0.00000045
 ==============================================================================
 Norm of residual vector:     0.00003234
 CPU time [hr]:     0.598                          Wall time [hr]:     0.013
 
 Iteration  9  CC energy:   -74.98555793          Energy decrease:   0.00000007
 Step       9  CC energy:   -74.985557932913565   Energy change  :   0.00000007
 ==============================================================================
 Norm of residual vector:     0.00001298
 CPU time [hr]:     0.652                          Wall time [hr]:     0.014
 
 Iteration 10  CC energy:   -74.98555784          Energy decrease:   0.00000010
 Step      10  CC energy:   -74.985557835844759   Energy change  :   0.00000010
 ==============================================================================
 Norm of residual vector:     0.00000451
 CPU time [hr]:     0.702                          Wall time [hr]:     0.015
 
 Iteration 11  CC energy:   -74.98555785          Energy decrease:   0.00000001
 Step      11  CC energy:   -74.985557846927790   Energy change  :   0.00000001
 ==============================================================================
 Norm of residual vector:     0.00000161
 CPU time [hr]:     0.765                          Wall time [hr]:     0.017
 
 Iteration 12  CC energy:   -74.98555785          Energy decrease:   4.9829E-10
 Step      12  CC energy:   -74.985557847426080   Energy change  :   4.9829E-10
 ==============================================================================
 Norm of residual vector:     0.00000059
 CPU time [hr]:     0.826                          Wall time [hr]:     0.018
 
 Iteration 13  CC energy:   -74.98555784          Energy decrease:   0.00000001
 Step      13  CC energy:   -74.985557842026068   Energy change  :   0.00000001
 ==============================================================================
 Norm of residual vector:     0.00000021
 CPU time [hr]:     0.878                          Wall time [hr]:     0.019
 
 Iteration 14  CC energy:   -74.98555784          Energy decrease:   9.9921E-10
 Step      14  CC energy:   -74.985557843025276   Energy change  :   9.9921E-10
 ==============================================================================
 Norm of residual vector:     0.00000007
 CPU time [hr]:     0.930                          Wall time [hr]:     0.020
 
 Iteration 15  CC energy:   -74.98555784          Energy decrease:   1.2705E-09
 Step      15  CC energy:   -74.985557844295727   Energy change  :   1.2705E-09
 ==============================================================================
 Norm of residual vector:     0.00000002
 CPU time [hr]:     1.033                          Wall time [hr]:     0.022
 
 Iteration 16  CC energy:   -74.98555784          Energy decrease:   1.2132E-10
 Step      16  CC energy:   -74.985557844417045   Energy change  :   1.2132E-10
 ==============================================================================
 Norm of residual vector:     0.00000001
 CPU time [hr]:     1.097                          Wall time [hr]:     0.024
 
 Iteration 17  CC energy:   -74.98555784          Energy decrease:   1.5220E-11
 Step      17  CC energy:   -74.985557844432265   Energy change  :   1.5220E-11
 ==============================================================================
 Norm of residual vector:     2.2563E-09
 CPU time [hr]:     1.161                          Wall time [hr]:     0.025
 
 Iteration 18  CC energy:   -74.98555784          Energy decrease:   2.0080E-11
 Step      18  CC energy:   -74.985557844452345   Energy change  :   2.0080E-11
 ==============================================================================
 Norm of residual vector:     6.6526E-10
 CPU time [hr]:     1.223                          Wall time [hr]:     0.026
 
 Iteration 19  CC energy:   -74.98555784          Energy decrease:   2.0179E-12
 Step      19  CC energy:   -74.985557844454362   Energy change  :   2.0179E-12
 ==============================================================================
 Norm of residual vector:     2.0830E-10
 CPU time [hr]:     1.289                          Wall time [hr]:     0.028
 
 Iteration 20  CC energy:   -74.98555784          Energy decrease:   1.8474E-13
 Step      20  CC energy:   -74.985557844454178   Energy change  :   1.8474E-13
 ==============================================================================
 Norm of residual vector:     5.7522E-11
 CPU time [hr]:     1.362                          Wall time [hr]:     0.029
 
 Iteration 21  CC energy:   -74.98555784          Energy decrease:   4.1211E-13
 Step      21  CC energy:   -74.985557844454590   Energy change  :   4.1211E-13
 ==============================================================================
 
 Iteration has converged in 21 steps.
 
 Final results:
 Total CCSDT energy [au]:                     -74.985557844455
 
 Perturbative corrections are calculated...
 ==============================================================================
 Spin case  1   Alpha:  1   Beta:  3
 Number of excitations:        9112
 ispcorr1 :                     0.000000000000000000
 ispcorr2 :                     0.000000000000000000
 corr1    :                     0.000000000000000000
 corr2    :                     0.000000000000000000
 CPU time [min]:    82.202                   Wall time [min]:     1.762
 ======================================================================
 Spin case  2   Alpha:  2   Beta:  2
 Number of excitations:        87796
 ispcorr1 :                     0.000000000000000000
 ispcorr2 :                     0.000000000000000000
 corr1    :                     0.000000000000000000
 corr2    :                     0.000000000000000000
 CPU time [min]:    82.516                   Wall time [min]:     1.768
 ======================================================================
 Spin case  3   Alpha:  3   Beta:  1
 Number of excitations:        55216
 ispcorr1 :                     0.000000000000000000
 ispcorr2 :                     0.000000000000000000
 corr1    :                     0.000000000000000000
 corr2    :                     0.000000000000000000
 CPU time [min]:    82.829                   Wall time [min]:     1.775
 ======================================================================
 Spin case  4   Alpha:  4   Beta:  0
 Number of excitations:        1980
 ispcorr1 :                     0.000000000000000000
 ispcorr2 :                     0.000000000000000000
 corr1    :                     0.000000000000000000
 corr2    :                     0.000000000000000000
 CPU time [min]:    82.929                   Wall time [min]:     1.777
 ======================================================================
 Spin case  5   Alpha:  1   Beta:  3
 Number of excitations:        8084
 ispcorr1 :                     0.000000000000000000
 ispcorr2 :                     0.000000000000000000
 corr1    :                     0.000000000000000000
 corr2    :                     0.000000000000000000
 CPU time [min]:    83.129                   Wall time [min]:     1.782
 ======================================================================
 Spin case  6   Alpha:  1   Beta:  3
 Number of excitations:        30928
 ispcorr1 :                     0.000000000000000000
 ispcorr2 :                     0.000000000000000000
 corr1    :                     0.000000000000000000
 corr2    :                     0.000000000000000000
 CPU time [min]:    83.528                   Wall time [min]:     1.790
 ======================================================================
 Spin case  7   Alpha:  2   Beta:  2
 Number of excitations:        165490
 ispcorr1 :                     0.000000000000000000
 ispcorr2 :                     0.000000000000000000
 corr1    :                     0.000000000000000000
 corr2    :                     0.000000000000000000
 CPU time [min]:    84.094                   Wall time [min]:     1.802
 ======================================================================
 Spin case  8   Alpha:  2   Beta:  2
 Number of excitations:        186430
 ispcorr1 :                     0.000000000000000000
 ispcorr2 :                     0.000000000000000000
 corr1    :                     0.000000000000000000
 corr2    :                     0.000000000000000000
 CPU time [min]:    84.734                   Wall time [min]:     1.816
 ======================================================================
 Spin case  9   Alpha:  3   Beta:  1
 Number of excitations:        164426
 ispcorr1 :                     0.000000000000000000
 ispcorr2 :                     0.000000000000000000
 corr1    :                     0.000000000000000000
 corr2    :                     0.000000000000000000
 CPU time [min]:    85.206                   Wall time [min]:     1.826
 ======================================================================
 Spin case 10   Alpha:  3   Beta:  1
 Number of excitations:        55488
 ispcorr1 :                     0.000000000000000000
 ispcorr2 :                     0.000000000000000000
 corr1    :                     0.000000000000000000
 corr2    :                     0.000000000000000000
 CPU time [min]:    85.382                   Wall time [min]:     1.830
 ======================================================================
 Spin case 11   Alpha:  4   Beta:  0
 Number of excitations:        8320
 ispcorr1 :                     0.000000000000000000
 ispcorr2 :                     0.000000000000000000
 corr1    :                     0.000000000000000000
 corr2    :                     0.000000000000000000
 CPU time [min]:    85.488                   Wall time [min]:     1.832
 ======================================================================
 Spin case 12   Alpha:  1   Beta:  3
 Number of excitations:        27450
 ispcorr1 :                     0.000000000000000000
 ispcorr2 :                     0.000000000000000000
 corr1    :                     0.000000000000000000
 corr2    :                     0.000000000000000000
 CPU time [min]:    85.796                   Wall time [min]:     1.838
 ======================================================================
 Spin case 13   Alpha:  1   Beta:  3
 Number of excitations:        31232
 ispcorr1 :                     0.000000000000000000
 ispcorr2 :                     0.000000000000000000
 corr1    :                     0.000000000000000000
 corr2    :                     0.000000000000000000
 CPU time [min]:    86.146                   Wall time [min]:     1.846
 ======================================================================
 Spin case 14   Alpha:  2   Beta:  2
 Number of excitations:        69009
 ispcorr1 :                     0.000000000000000000
 ispcorr2 :                     0.000000000000000000
 corr1    :                     0.000000000000000000
 corr2    :                     0.000000000000000000
 CPU time [min]:    86.385                   Wall time [min]:     1.851
 ======================================================================
 Spin case 15   Alpha:  2   Beta:  2
 Number of excitations:        353740
 ispcorr1 :                     0.000000000000000000
 ispcorr2 :                     0.000000000000000000
 corr1    :                     0.000000000000000000
 corr2    :                     0.000000000000000000
 CPU time [min]:    87.298                   Wall time [min]:     1.871
 ======================================================================
 Spin case 16   Alpha:  2   Beta:  2
 Number of excitations:        88309
 ispcorr1 :                     0.000000000000000000
 ispcorr2 :                     0.000000000000000000
 corr1    :                     0.000000000000000000
 corr2    :                     0.000000000000000000
 CPU time [min]:    87.577                   Wall time [min]:     1.876
 ======================================================================
 Spin case 17   Alpha:  3   Beta:  1
 Number of excitations:        143496
 ispcorr1 :                     0.000000000000000000
 ispcorr2 :                     0.000000000000000000
 corr1    :                     0.000000000000000000
 corr2    :                     0.000000000000000000
 CPU time [min]:    88.018                   Wall time [min]:     1.886
 ======================================================================
 Spin case 18   Alpha:  3   Beta:  1
 Number of excitations:        163648
 ispcorr1 :                     0.000000000000000000
 ispcorr2 :                     0.000000000000000000
 corr1    :                     0.000000000000000000
 corr2    :                     0.000000000000000000
 CPU time [min]:    88.445                   Wall time [min]:     1.895
 ======================================================================
 Spin case 19   Alpha:  4   Beta:  0
 Number of excitations:        11043
 ispcorr1 :                     0.000000000000000000
 ispcorr2 :                     0.000000000000000000
 corr1    :                     0.000000000000000000
 corr2    :                     0.000000000000000000
 CPU time [min]:    88.580                   Wall time [min]:     1.897
 ======================================================================
 Spin case 20   Alpha:  1   Beta:  3
 Number of excitations:        27998
 ispcorr1 :                     0.000000000000000000
 ispcorr2 :                     0.000000000000000000
 corr1    :                     0.000000000000000000
 corr2    :                     0.000000000000000000
 CPU time [min]:    88.872                   Wall time [min]:     1.904
 ======================================================================
 Spin case 21   Alpha:  1   Beta:  3
 Number of excitations:        9376
 ispcorr1 :                     0.000000000000000000
 ispcorr2 :                     0.000000000000000000
 corr1    :                     0.000000000000000000
 corr2    :                     0.000000000000000000
 CPU time [min]:    89.020                   Wall time [min]:     1.907
 ======================================================================
 Spin case 22   Alpha:  2   Beta:  2
 Number of excitations:        148458
 ispcorr1 :                     0.000000000000000000
 ispcorr2 :                     0.000000000000000000
 corr1    :                     0.000000000000000000
 corr2    :                     0.000000000000000000
 CPU time [min]:    89.432                   Wall time [min]:     1.915
 ======================================================================
 Spin case 23   Alpha:  2   Beta:  2
 Number of excitations:        169018
 ispcorr1 :                     0.000000000000000000
 ispcorr2 :                     0.000000000000000000
 corr1    :                     0.000000000000000000
 corr2    :                     0.000000000000000000
 CPU time [min]:    89.862                   Wall time [min]:     1.924
 ======================================================================
 Spin case 24   Alpha:  3   Beta:  1
 Number of excitations:        37014
 ispcorr1 :                     0.000000000000000000
 ispcorr2 :                     0.000000000000000000
 corr1    :                     0.000000000000000000
 corr2    :                     0.000000000000000000
 CPU time [min]:    90.195                   Wall time [min]:     1.989
 ======================================================================
 Spin case 25   Alpha:  3   Beta:  1
 Number of excitations:        140904
 ispcorr1 :                     0.000000000000000000
 ispcorr2 :                     0.000000000000000000
 corr1    :                     0.000000000000000000
 corr2    :                     0.000000000000000000
 CPU time [min]:    90.568                   Wall time [min]:     1.997
 ======================================================================
 Spin case 26   Alpha:  4   Beta:  0
 Number of excitations:        5688
 ispcorr1 :                     0.000000000000000000
 ispcorr2 :                     0.000000000000000000
 corr1    :                     0.000000000000000000
 corr2    :                     0.000000000000000000
 CPU time [min]:    90.674                   Wall time [min]:     1.999
 ======================================================================
 Spin case 27   Alpha:  1   Beta:  3
 Number of excitations:        8464
 ispcorr1 :                     0.000000000000000000
 ispcorr2 :                     0.000000000000000000
 corr1    :                     0.000000000000000000
 corr2    :                     0.000000000000000000
 CPU time [min]:    90.951                   Wall time [min]:     2.053
 ======================================================================
 Spin case 28   Alpha:  2   Beta:  2
 Number of excitations:        71475
 ispcorr1 :                     0.000000000000000000
 ispcorr2 :                     0.000000000000000000
 corr1    :                     0.000000000000000000
 corr2    :                     0.000000000000000000
 CPU time [min]:    91.159                   Wall time [min]:     2.058
 ======================================================================
 Spin case 29   Alpha:  3   Beta:  1
 Number of excitations:        36148
 ispcorr1 :                     0.000000000000000000
 ispcorr2 :                     0.000000000000000000
 corr1    :                     0.000000000000000000
 corr2    :                     0.000000000000000000
 CPU time [min]:    91.449                   Wall time [min]:     2.066
 ======================================================================
 Spin case 30   Alpha:  4   Beta:  0
 Number of excitations:        1044
 ispcorr1 :                     0.000000000000000000
 ispcorr2 :                     0.000000000000000000
 corr1    :                     0.000000000000000000
 corr2    :                     0.000000000000000000
 CPU time [min]:    91.491                   Wall time [min]:     2.067
 ======================================================================
 Number of 4-fold excitations: 2316784
 
 T_2^+ contribution [au]:                                  -0.000000076992139709
 corr1 :                    -0.000000076992139709
 corr3 :                     0.000000000000000000
 corr4 :                     0.000000000000000000
 T_3^+ contribution [au]:                                  -0.000000011886614553
 T_1^+ * T_2^+ contribution [au]:                           0.000000000321566456
 T_1^+ * <ab||ij> contribution [au]:                        0.000000000277201220
 T_2^+ * f_ai contribution [au]:                           -0.000000000000000000
 corr2 :                    -0.000000011886614553
 corr3 :                     0.000000000321566456
 corr4 :                     0.000000000277201220
 
 T_2^+ contribution [au]:                                   0.000006127581003825
 corr1 :                     0.000006127581003825
 corr3 :                     0.000000000321566456
 corr4 :                     0.000000000277201220
 T_3^+ contribution [au]:                                  -0.000020862232288591
 T_1^+ * T_2^+ contribution [au]:                           0.000002527167762054
 T_1^+ * <ab||ij> contribution [au]:                        0.000001624759597812
 T_2^+ * f_ai contribution [au]:                            0.000000000000000000
 corr2 :                    -0.000020862232288591
 corr3 :                     0.000002527489328511
 corr4 :                     0.000001625036799032
 
 T_2^+ contribution [au]:                                   0.000018841990748842
 corr1 :                     0.000018841990748842
 corr3 :                     0.000002527489328511
 corr4 :                     0.000001625036799032
 T_3^+ contribution [au]:                                  -0.000043542495387889
 T_1^+ * T_2^+ contribution [au]:                           0.000006462282519673
 T_1^+ * <ab||ij> contribution [au]:                        0.000003949457842688
 T_2^+ * f_ai contribution [au]:                            0.000000000000000000
 corr2 :                    -0.000043542495387889
 corr3 :                     0.000008989771848184
 corr4 :                     0.000005574494641720
 
 T_2^+ contribution [au]:                                   0.000019633205960921
 corr1 :                     0.000019633205960921
 corr3 :                     0.000008989771848184
 corr4 :                     0.000005574494641720
 T_3^+ contribution [au]:                                  -0.000044071879421150
 T_1^+ * T_2^+ contribution [au]:                           0.000006610539496157
 T_1^+ * <ab||ij> contribution [au]:                        0.000004038737005849
 T_2^+ * f_ai contribution [au]:                            0.000000000000000000
 corr2 :                    -0.000044071879421150
 corr3 :                     0.000015600311344340
 corr4 :                     0.000009613231647569
 
 T_2^+ contribution [au]:                                   0.000019626682889072
 corr1 :                     0.000019626682889072
 corr3 :                     0.000015600311344340
 corr4 :                     0.000009613231647569
 T_3^+ contribution [au]:                                  -0.000044074171969133
 T_1^+ * T_2^+ contribution [au]:                           0.000006610573384804
 T_1^+ * <ab||ij> contribution [au]:                        0.000004038799370375
 T_2^+ * f_ai contribution [au]:                            0.000000000000000000
 corr2 :                    -0.000044074171969133
 corr3 :                     0.000022210884729144
 corr4 :                     0.000013652031017944
 
 T_2^+ contribution [au]:                                   0.000019257842094035
 corr1 :                     0.000019257842094035
 corr3 :                     0.000022210884729144
 corr4 :                     0.000013652031017944
 T_3^+ contribution [au]:                                  -0.000044148753356288
 T_1^+ * T_2^+ contribution [au]:                           0.000006611091456138
 T_1^+ * <ab||ij> contribution [au]:                        0.000004040081703283
 T_2^+ * f_ai contribution [au]:                            0.000000000000000000
 corr2 :                    -0.000044148753356288
 corr3 :                     0.000028821976185282
 corr4 :                     0.000017692112721227
 
 T_2^+ contribution [au]:                                   0.000010061610238521
 corr1 :                     0.000010061610238521
 corr3 :                     0.000028821976185282
 corr4 :                     0.000017692112721227
 T_3^+ contribution [au]:                                  -0.000045043507170336
 T_1^+ * T_2^+ contribution [au]:                           0.000006674713536423
 T_1^+ * <ab||ij> contribution [au]:                        0.000004093760958424
 T_2^+ * f_ai contribution [au]:                            0.000000000000000000
 corr2 :                    -0.000045043507170336
 corr3 :                     0.000035496689721704
 corr4 :                     0.000021785873679652
 
 T_2^+ contribution [au]:                                   0.000003686118227288
 corr1 :                     0.000003686118227288
 corr3 :                     0.000035496689721704
 corr4 :                     0.000021785873679652
 T_3^+ contribution [au]:                                  -0.000049625938816741
 T_1^+ * T_2^+ contribution [au]:                           0.000007023613592301
 T_1^+ * <ab||ij> contribution [au]:                        0.000004309434088610
 T_2^+ * f_ai contribution [au]:                            0.000000000000000000
 corr2 :                    -0.000049625938816741
 corr3 :                     0.000042520303314005
 corr4 :                     0.000026095307768262
 
 T_2^+ contribution [au]:                                  -0.000012954930768096
 corr1 :                    -0.000012954930768096
 corr3 :                     0.000042520303314005
 corr4 :                     0.000026095307768262
 T_3^+ contribution [au]:                                  -0.000050689083020003
 T_1^+ * T_2^+ contribution [au]:                           0.000007169700519857
 T_1^+ * <ab||ij> contribution [au]:                        0.000004420797071671
 T_2^+ * f_ai contribution [au]:                            0.000000000000000000
 corr2 :                    -0.000050689083020003
 corr3 :                     0.000049690003833862
 corr4 :                     0.000030516104839934
 
 T_2^+ contribution [au]:                                  -0.000016656734981153
 corr1 :                    -0.000016656734981153
 corr3 :                     0.000049690003833862
 corr4 :                     0.000030516104839934
 T_3^+ contribution [au]:                                  -0.000052798524970234
 T_1^+ * T_2^+ contribution [au]:                           0.000007406073607526
 T_1^+ * <ab||ij> contribution [au]:                        0.000004555488344934
 T_2^+ * f_ai contribution [au]:                            0.000000000000000000
 corr2 :                    -0.000052798524970234
 corr3 :                     0.000057096077441388
 corr4 :                     0.000035071593184868
 
 T_2^+ contribution [au]:                                  -0.000017644993190460
 corr1 :                    -0.000017644993190460
 corr3 :                     0.000057096077441388
 corr4 :                     0.000035071593184868
 T_3^+ contribution [au]:                                  -0.000052823565416744
 T_1^+ * T_2^+ contribution [au]:                           0.000007416980320678
 T_1^+ * <ab||ij> contribution [au]:                        0.000004563475453403
 T_2^+ * f_ai contribution [au]:                            0.000000000000000000
 corr2 :                    -0.000052823565416744
 corr3 :                     0.000064513057762066
 corr4 :                     0.000039635068638271
 
 T_2^+ contribution [au]:                                  -0.000017698192036965
 corr1 :                    -0.000017698192036965
 corr3 :                     0.000064513057762066
 corr4 :                     0.000039635068638271
 T_3^+ contribution [au]:                                  -0.000052839940950653
 T_1^+ * T_2^+ contribution [au]:                           0.000007417175447298
 T_1^+ * <ab||ij> contribution [au]:                        0.000004563706755857
 T_2^+ * f_ai contribution [au]:                            0.000000000000000000
 corr2 :                    -0.000052839940950653
 corr3 :                     0.000071930233209364
 corr4 :                     0.000044198775394129
 
 T_2^+ contribution [au]:                                  -0.000017992022867105
 corr1 :                    -0.000017992022867105
 corr3 :                     0.000071930233209364
 corr4 :                     0.000044198775394129
 T_3^+ contribution [au]:                                  -0.000052910982767400
 T_1^+ * T_2^+ contribution [au]:                           0.000007415062660296
 T_1^+ * <ab||ij> contribution [au]:                        0.000004563604068263
 T_2^+ * f_ai contribution [au]:                            0.000000000000000000
[...]
 corr3 :                    -0.000000000019927035
 corr4 :                    -0.000000000000923843
 T_2^+ contribution [au]:                                   0.000000000004111233
 corr2 :                     0.000000000001476058
 corr3 :                    -0.000000000019927035
 corr4 :                    -0.000000000000923843
 
 CPU time [min]: 78906.645                   Wall time [min]:  2041.066
 
 Total CC(6)[7] energy [au]:                  -74.985637596783
 Total CC(6)(7)/A energy [au]:                -74.985637596783
 Total CC(6)(7)/B energy [au]:                -74.985637596764
 
 Dominant cluster amplitudes
 Printing threshold:  1.00E-02
 
    1.000000  Reference determinant                                     
    0.011807  3b -> 9b                                                  
    0.011295  5a -> 8a                                                  
    0.011295  4a -> 7a                                                  
    0.014629  3a -> 9a                                                  
    0.012189  2b 3b -> 13b 4b                                           
    0.014398  4a 3b -> 9a 4b                                            
   -0.022043  5a 2b -> 11a 4b                                           
   -0.016081  5a 2b -> 20a 4b                                           
    0.010111  4a 2b -> 6a 4b                                            
    0.022043  4a 2b -> 10a 4b                                           
    0.011707  4a 2b -> 14a 4b                                           
    0.016081  4a 2b -> 19a 4b                                           
   -0.021337  3a 2b -> 13a 4b                                           
   -0.015524  3a 2b -> 22a 4b                                           
   -0.012189  2b 3b -> 5b 12b                                           
    0.011101  2b 3b -> 17b 18b                                          
   -0.010216  2a 2b -> 18a 6b                                           
   -0.010141  2a 2b -> 6a 18b                                           
   -0.017878  2a 2b -> 18a 18b                                          
   -0.019669  3a 3b -> 14a 10b                                          
   -0.010754  3a 3b -> 23a 10b                                          
   -0.011648  3a 3b -> 18a 18b                                          
   -0.011208  3a 3b -> 14a 19b                                          
   -0.015336  3a 3b -> 23a 19b                                          
   -0.015250  3a 3b -> 13a 13b                                          
   -0.011818  3a 3b -> 22a 22b                                          
   -0.015250  3a 3b -> 12a 12b                                          
   -0.011818  3a 3b -> 21a 21b                                          
   -0.011308  2a 2b -> 16a 16b                                          
   -0.011308  2a 2b -> 15a 15b                                          
   -0.020637  3a 3b -> 9a 9b                                            
   -0.025161  3a 3b -> 17a 9b                                           
   -0.023483  3a 3b -> 9a 17b                                           
   -0.040674  3a 3b -> 17a 17b                                          
    0.010940  4a 3b -> 10a 13b                                          
   -0.010953  4a 3b -> 13a 10b                                          
   -0.010940  4a 3b -> 11a 12b                                          
   -0.014255  4a 3b -> 7a 9b                                            
   -0.018801  4a 3b -> 15a 9b                                           
   -0.015921  4a 3b -> 7a 17b                                           
   -0.028870  4a 3b -> 15a 17b                                          
   -0.013232  4a 3b -> 9a 7b                                            
   -0.010940  5a 3b -> 10a 12b                                          
   -0.010953  5a 3b -> 12a 10b                                          
   -0.010940  5a 3b -> 11a 13b                                          
   -0.014255  5a 3b -> 8a 9b                                            
   -0.018801  5a 3b -> 16a 9b                                           
   -0.015921  5a 3b -> 8a 17b                                           
   -0.028870  5a 3b -> 16a 17b                                          
    0.014398  5a 3b -> 9a 5b                                            
   -0.013232  5a 3b -> 9a 8b                                            
    0.010111  5a 2b -> 6a 5b                                            
   -0.022043  5a 2b -> 10a 5b                                           
    0.011707  5a 2b -> 14a 5b                                           
   -0.016081  5a 2b -> 19a 5b                                           
   -0.011012  5a 2b -> 6a 8b                                            
    0.017770  5a 2b -> 10a 8b                                           
    0.014847  5a 2b -> 19a 8b                                           
   -0.010159  5a 2b -> 6a 16b                                           
   -0.012309  5a 2b -> 18a 16b                                          
    0.017770  5a 2b -> 11a 7b                                           
    0.014847  5a 2b -> 20a 7b                                           
   -0.015066  5a 2b -> 16a 6b                                           
   -0.010291  5a 2b -> 8a 18b                                           
   -0.022221  5a 2b -> 16a 18b                                          
   -0.011012  4a 2b -> 6a 7b                                            
   -0.017770  4a 2b -> 10a 7b                                           
   -0.014847  4a 2b -> 19a 7b                                           
   -0.010159  4a 2b -> 6a 15b                                           
   -0.012309  4a 2b -> 18a 15b                                          
   -0.022043  4a 2b -> 11a 5b                                           
   -0.016081  4a 2b -> 20a 5b                                           
    0.017770  4a 2b -> 11a 8b                                           
    0.014847  4a 2b -> 20a 8b                                           
   -0.015066  4a 2b -> 15a 6b                                           
   -0.010291  4a 2b -> 7a 18b                                           
   -0.022221  4a 2b -> 15a 18b                                          
   -0.010771  2a 3b -> 6a 9b                                            
   -0.012270  2a 3b -> 18a 9b                                           
   -0.014866  2a 3b -> 6a 17b                                           
   -0.022978  2a 3b -> 18a 17b                                          
   -0.011430  3a 2b -> 18a 17b                                          
    0.017091  3a 2b -> 13a 7b                                           
    0.014361  3a 2b -> 22a 7b                                           
   -0.021337  3a 2b -> 12a 5b                                           
   -0.015524  3a 2b -> 21a 5b                                           
    0.017091  3a 2b -> 12a 8b                                           
    0.014361  3a 2b -> 21a 8b                                           
   -0.010998  2a 3b -> 17a 18b                                          
   -0.010501  3a 2b -> 9a 6b                                            
   -0.015456  3a 2b -> 17a 6b                                           
   -0.010996  3a 2b -> 9a 18b                                           
   -0.022641  3a 2b -> 17a 18b                                          
    0.010221  3a 4a -> 7a 9a                                            
    0.014083  3a 4a -> 13a 14a                                          
   -0.013777  3a 4a -> 9a 15a                                           
    0.012509  3a 4a -> 7a 17a                                           
    0.022235  3a 4a -> 15a 17a                                          
    0.010888  3a 4a -> 22a 23a                                          
    0.010221  3a 5a -> 8a 9a                                            
    0.014083  3a 5a -> 12a 14a                                          
   -0.013777  3a 5a -> 9a 16a                                           
    0.012509  3a 5a -> 8a 17a                                           
    0.022235  3a 5a -> 16a 17a                                          
    0.010888  3a 5a -> 21a 23a                                          
    0.014513  4a 5a -> 10a 11a                                          
    0.012508  4a 5a -> 8a 15a                                           
   -0.012508  4a 5a -> 7a 16a                                           
   -0.022421  4a 5a -> 15a 16a                                          
    0.012231  4a 5a -> 19a 20a                                          
    0.012413  2a 5a -> 16a 18a                                          
    0.012413  2a 4a -> 15a 18a                                          
    0.012404  2a 3a -> 17a 18a                                          

 ************************ 2026-01-05 14:56:29 *************************
 Executing goldstone...

 Generation of MRCC equations in terms of H and T...
 Generation of antisymmetrized Goldstone diagrams...
 Number of diagrams in T^1 equations:    15
 Number of diagrams in T^2 equations:    38
 Number of diagrams in T^3 equations:    54
 Number of diagrams in T^4 equations:    81
 Number of diagrams in T^5 equations:   106
 Number of diagrams in T^6 equations:   142
 Number of diagrams in T^7 equations:   172
 Number of diagrams in T^8 equations:    30
 Translation of diagrams to factorized equations...
 Number of restricted diagrams in T^1 equations:     78
 Number of restricted diagrams in T^2 equations:    344
 Number of restricted diagrams in T^3 equations:    892
 Number of restricted diagrams in T^4 equations:   2035
 Number of restricted diagrams in T^5 equations:   4044
 Number of restricted diagrams in T^6 equations:   7540
 Number of restricted diagrams in T^7 equations:  12978
 Number of restricted diagrams in T^8 equations:   3536
 Optimizing intermediate calculation...
 Number of floating-point operations per iteration step:   3.6635E+14
 Probable CPU time per iteration step (hours):         3663.50
 Required memory (Mbytes):          6127.6
 Number of intermediates:                                4232
 Number of intermediates to be stored:                   1627
 Length of intermediate file (Mbytes):        312097.2

 ************************ 2026-01-05 14:56:42 *************************
 Executing xmrcc...

 **********************************************************************
 MRCC(                     8 ) calculation 
 
 
 Allocation of        65536.0 Mbytes of memory...
 Number of spinorbitals:                    78
 Number of alpha electrons:                        5
 Number of beta electrons:                         3
 Number of active particles:                    36
 Number of active holes:                         0
 Spin multiplicity:                     2
 z-component of spin:  1.0
 Spatial symmetry:                      4
 Convergence criterion:  1.0E-10
 Construction of occupation graphs...
 Number of                     0 -fold excitations:                      1
 Number of                     1 -fold excitations:                     72
 Number of                     2 -fold excitations:                   4081
 Number of                     3 -fold excitations:                 130252
 Number of                     4 -fold excitations:                2316784
 Number of                     5 -fold excitations:               22225638
 Number of                     6 -fold excitations:              111783286
 Number of                     7 -fold excitations:              272651874
 Total number of configurations:              409111988
 Calculation of coupling coefficients...
 Length of intermediate file (Mbytes):        160621.1
 
 ======================================================================
 
 Spin case  1   Alpha:  5   Beta:  3
 Number of excitations:                 874048
 Spin case  2   Alpha:  5   Beta:  3
 Number of excitations:                4991920
 Spin case  3   Alpha:  5   Beta:  3
 Number of excitations:                2949760
 Spin case  4   Alpha:  5   Beta:  3
 Number of excitations:                9985536
 Spin case  5   Alpha:  5   Beta:  3
 Number of excitations:               16852720
 Spin case  6   Alpha:  5   Beta:  3
 Number of excitations:                2949992
 Spin case  7   Alpha:  5   Beta:  3
 Number of excitations:                8741692
 Spin case  8   Alpha:  5   Beta:  3
 Number of excitations:               33706464
 Spin case  9   Alpha:  5   Beta:  3
 Number of excitations:               16863080
 Spin case 10   Alpha:  5   Beta:  3
 Number of excitations:                 874240
 Spin case 11   Alpha:  5   Beta:  3
 Number of excitations:                3342592
 Spin case 12   Alpha:  5   Beta:  3
 Number of excitations:               29499214
 Spin case 13   Alpha:  5   Beta:  3
 Number of excitations:               33718704
 Spin case 14   Alpha:  5   Beta:  3
 Number of excitations:                5000320
 Spin case 15   Alpha:  5   Beta:  3
 Number of excitations:                 445500
 Spin case 16   Alpha:  5   Beta:  3
 Number of excitations:               11279176
 Spin case 17   Alpha:  5   Beta:  3
 Number of excitations:               29482784
 Spin case 18   Alpha:  5   Beta:  3
 Number of excitations:                9994752
 Spin case 19   Alpha:  5   Beta:  3
 Number of excitations:                1503588
 Spin case 20   Alpha:  5   Beta:  3
 Number of excitations:               11270306
 Spin case 21   Alpha:  5   Beta:  3
 Number of excitations:                8731792
 Spin case 22   Alpha:  5   Beta:  3
 Number of excitations:                1505010
 Spin case 23   Alpha:  5   Beta:  3
 Number of excitations:                3336928
 Spin case 24   Alpha:  5   Beta:  3
 Number of excitations:                 446304
 Number of                     8 -fold excitations:              248346422
 
 Memory requirements /Mbyte/: 
               Minimal        Optimal
 Real*8:     154907.2190    154907.2190
 Integer:       322.4202
 Total:      155229.6392    155229.6392
 

 ************************ 2026-01-05 15:00:53 *************************
 Executing mrcc...

 **********************************************************************
 CC(7)(8) calculation                                                   
 
 
 OpenMP parallel version is running.
 Number of CPU cores:  48
 Allocation of       154907.2 Mbytes of memory...
 Number of spinorbitals:  78
 Number of alpha electrons:  5
 Number of beta  electrons:  3
 Number of active particles:                    36
 Number of active holes:                         0
 Spin multiplicity: 3
 z-component of spin:  1.0
 Spatial symmetry: 4
 Convergence criterion:  1.0E-10
 Construction of occupation graphs...
 Number of 0-fold excitations: 1
 Number of 1-fold excitations: 72
 Number of 2-fold excitations: 4081
 Number of 3-fold excitations: 130252
 Number of 4-fold excitations: 2316784
 Number of 5-fold excitations: 22225638
 Number of 6-fold excitations: 111783286
 Number of 7-fold excitations: 272651874
 Total number of determinants: 409111988
 Calculation of coupling coefficients...
 Initial cluster amplitudes are read from unit 16.
 Length of intermediate file (Mbytes):  160621.1
 Reading integral list from unit 55...
 Sorting integrals...
 Sorting integrals...
 Sorting integrals...
 Sorting integrals...
 Energy of reference determinant [au]:     -74.797689959791
 Calculation of MP denominators...
 
 Starting CC iteration...
 ==============================================================================
 Norm of residual vector:     0.00006570
 CPU time [hr]:   197.361                          Wall time [hr]:     6.272
 
 Iteration  1  CC energy:   -74.98563760          Energy decrease:   7.1054E-14
 Step       1  CC energy:   -74.985637596759346   Energy change  :   7.1054E-14
 ==============================================================================
 Norm of residual vector:     0.00000444
 CPU time [hr]:   399.346                          Wall time [hr]:    12.376
 
 Iteration  2  CC energy:   -74.98563760          Energy decrease:   1.4211E-14
 Step       2  CC energy:   -74.985637596759361   Energy change  :   1.4211E-14
 ==============================================================================
 Norm of residual vector:     0.00000060
 CPU time [hr]:   598.347                          Wall time [hr]:    18.434
 
 Iteration  3  CC energy:   -74.98563760          Energy decrease:   1.4211E-14
 Step       3  CC energy:   -74.985637596759375   Energy change  :   1.4211E-14
 ==============================================================================
 Norm of residual vector:     0.00000009
 CPU time [hr]:   801.585                          Wall time [hr]:    24.497
 
 Iteration  4  CC energy:   -74.98563760          Energy decrease:   7.6739E-13
 Step       4  CC energy:   -74.985637596760142   Energy change  :   7.6739E-13
 ==============================================================================
 Norm of residual vector:     0.00000002
 CPU time [hr]:  1001.460                          Wall time [hr]:    30.470
 
 Iteration  5  CC energy:   -74.98563760          Energy decrease:   8.7539E-12
 Step       5  CC energy:   -74.985637596768896   Energy change  :   8.7539E-12
 ==============================================================================
 Norm of residual vector:     0.00000001
 CPU time [hr]:  1191.258                          Wall time [hr]:    36.210
 
 Iteration  6  CC energy:   -74.98563760          Energy decrease:   1.9966E-11
 Step       6  CC energy:   -74.985637596788862   Energy change  :   1.9966E-11
 ==============================================================================
 Norm of residual vector:     1.8210E-09
 CPU time [hr]:  1382.164                          Wall time [hr]:    41.979
 
 Iteration  7  CC energy:   -74.98563760          Energy decrease:   6.8781E-12
 Step       7  CC energy:   -74.985637596795740   Energy change  :   6.8781E-12
 ==============================================================================
 Norm of residual vector:     6.0889E-10
 CPU time [hr]:  1577.032                          Wall time [hr]:    47.811
 
 Iteration  8  CC energy:   -74.98563760          Energy decrease:   7.2475E-13
 Step       8  CC energy:   -74.985637596796465   Energy change  :   7.2475E-13
 ==============================================================================
 Norm of residual vector:     1.9386E-10
 CPU time [hr]:  1774.605                          Wall time [hr]:    53.729
 
 Iteration  9  CC energy:   -74.98563760          Energy decrease:   4.2633E-13
 Step       9  CC energy:   -74.985637596796039   Energy change  :   4.2633E-13
 ==============================================================================
 Norm of residual vector:     8.1989E-11
 CPU time [hr]:  1970.424                          Wall time [hr]:    59.617
 
 Iteration 10  CC energy:   -74.98563760          Energy decrease:   3.4106E-13
 Step      10  CC energy:   -74.985637596795698   Energy change  :   3.4106E-13
 ==============================================================================
 
 Iteration has converged in 10 steps.
 
 Final results:
 Total CC(7) energy [au]:                     -74.985637596796
 
 Perturbative corrections are calculated...
 ==============================================================================
 Spin case  1   Alpha:  5   Beta:  3
 Number of excitations:        874048
 
 Fatal error in mrcc.
 Program will stop.
 
 ************************ 2026-01-08 03:58:23 *************************
                   Error at the termination of mrcc.
 **********************************************************************
Program finished with exit code 1 at: Thu 08 Jan 2026 03:58:23 AM EST
