Starting run at: Wed 27 Aug 2025 06:44:36 AM EDT
 --invoking executable--
/cvmfs/restricted.computecanada.ca/easybuild/software/2023/x86-64-v4/Compiler/intel2023/cfour/2.1/bin/xjoda


   *************************************************************************
         <<<     CCCCCC     CCCCCC   |||     CCCCCC     CCCCCC   >>>
       <<<      CCC        CCC       |||    CCC        CCC         >>>
      <<<      CCC        CCC        |||   CCC        CCC            >>>
    <<<        CCC        CCC        |||   CCC        CCC              >>>
      <<<      CCC        CCC        |||   CCC        CCC            >>>
       <<<      CCC        CCC       |||    CCC        CCC         >>>
         <<<     CCCCCC     CCCCCC   |||     CCCCCC     CCCCCC   >>>
   *************************************************************************

     ****************************************************************
     * CFOUR Coupled-Cluster techniques for Computational Chemistry *
     ****************************************************************
 

   Department of Chemistry                Institut fuer Physikalische Chemie
   University of Florida                  Universitaet Mainz
   Gainesville, FL 32611, USA             D-55099 Mainz, Germany

   Department of Chemistry                Fakultaet fuer Chemie und Biowiss.
   Johns Hopkins University               Karlsruher Institut fuer Technologie
   Baltimore, MD 21218, USA               D-76131 Karlsruhe, Germany

   Department of Chemistry                Department of Physical Chemistry
   Southern Methodist University          Eotvos Lorand University
   Dallas, TX 75275, USA                  H-1053 Budapest, Hungary

 
                       Version 2.1
 
                     rc32113                                           
                     Wed 27 Aug 2025 06:44:36 AM EDT                   
                     integer*8 version is running
 
********************************************************************************
*                          Input from ZMAT file                                *
********************************************************************************
TITLE                                                                           
O                                                                               
                                                                                
*ACES2(CALC=CCSD                                                                
INPUT_MRCC=ON                                                                   
CC_PROG=MRCC                                                                    
DBOC=1                                                                          
XFORM_TOL=18                                                                    
SAVE_INTS=ON                                                                    
SCF_EXPORDER=6                                                                  
SCF_EXPSTART=5                                                                  
#SCF_DAMPING=1000                                                               
SCF_EXTRAPOLATION=ON                                                            
SCF_CONV=9                                                                      
SCF_MAXCYC=9999                                                                 
CC_CONV=6                                                                       
CC_MAXCYC=999                                                                   
T3_EXTRAPOL=ON                                                                  
REFERENCE=UHF                                                                   
CHARGE=+0                                                                       
MULT=3                                                                          
ABCDTYPE=STANDARD                                                               
OCCUPATION=2-1-1-0-1-0-0-0/2-1-0-0-0-0-0-0                                      
MEM=25                                                                          
MEM_UNIT=GB                                                                     
BASIS=SPECIAL)                                                                  
                                                                                
O:aCV6Z-MOLP                                                                    
                                                                                
********************************************************************************
  @GTFLGS-W, Keyword #SCF_DAMPING not known and is ignored.
    -------------------------------------------------------------------
                    CFOUR Control Parameters 
    -------------------------------------------------------------------
        External           Internal           Value            Units
          Name               Name
    -------------------------------------------------------------------
       ABCDTYPE             IABCDT         STANDARD    [  0]    ***   
       ANHARMONIC           IANHAR         OFF         [  0]    ***   
       ANH_ALGORIT          IANALG         STANDARD    [  0]    ***   
       ANH_DERIVAT          IANDER         SECOND      [  1]    ***   
       ANH_MODE             ANHMOD         VIBRATION   [  0]    ***   
       ANH_STEPSIZ          ICUBST             50000          x 10-6  
       ANH_SYMMETR          IANHSM         ABELIAN     [  0]    ***   
       AO_LADDERS           IAOLAD         SINGLEPASS  [  1]    ***   
       AV_SCF               IAVSCF         OFF         [  0]    ***   
       BASIS                IBASIS         SPECIAL     [  0]    ***   
       BOTHVECTORS          BOTHVC         OFF         [  0]    ***   
       BOX_POTENT           IPIAB          OFF         [  0]    ***   
       BREIT                IBREIT         OFF         [  0]    ***   
       BRUCK_CONV           IBRTOL          10D-  4             ***   
       BRUECKNER            IBRKNR         OFF         [  0]    ***   
       BUFFERSIZE           IBUFFS              4096            ***   
       CACHE_RECS           ICHREC             10               ***   
       CALCLEVEL            ICLLVL         CCSD        [ 10]    ***   
       CCORBOPT             ICCORB         OFF         [  0]  x 0.01  
       CC_CONV              ICCCNV          10D-  6             ***   
       CC_EXPORDER          ICCEOR              5               ***   
       CC_EXTRAPOL          ICCEXT         DIIS        [  1]    ***   
       CC_GUESS             ICCGES         MP2         [  0]    ***   
       CC_MAXCYC            ICCCYC            999              cycles 
       CC_PROGRAM           ICCPRO         MRCC        [  2]    ***   
       CHARGE               ICHRGE              0               ***   
       CHOLESKY             ICHOLE         OFF         [  0]    ***   
       CIS_CONV             ICISTL              5               ***   
       COMM_SIZE            IPSIZE            ***               ***   
       CONSTANT             ICONST         OLD         [  1]    ***   
       CONTINUUM            ICONTU         NONE        [  0]    ***   
       CONTRACTION          ICNTYP         GENERAL     [  1]    ***   
       COORDINATES          ICOORD         INTERNAL    [  0]    ***   
       CPHF_CONVER          ICPHFT          10D- 16             ***   
       CPHF_MAXCYC          ICPHFC             64              cycles 
       CUBIC                ICUBIC         OFF         [  0]    ***   
       CURVILINEAR          ICURVY         OFF         [  0]    ***   
       DBOC                 IDBOC          ON          [  1]    ***   
       DCT                  IDCT           OFF         [  0]    ***   
       DERIV_LEV            IDRLVL         SECOND      [  2]    ***   
       DEVMEM_SIZE          IDVMEM         *********           MByte  
       DIAG_MRCC            IEOMST          10D-  0             ***   
       DIFF_TYPE            IDIFTY         RELAXED     [  0]    ***   
       DIRECT               IDIRCT         OFF         [  0]    ***   
       DROPMO               IDRPMO      NONE         
       ECP                  IECP           OFF         [  0]    ***   
       EIGENVECTOR          IVEC                1               ***   
       EL_ANHARM            IELANH         OFF         [  0]    ***   
       EOMFOLLOW            IEOMSR         ENERGY      [  0]    ***   
       EOMIP                IEOMIP         OFF         [  0]    ***   
       EOMLEVEL             HBARFM         SAME        [  0]    ***   
       EOM_MRCC             IMRCCE         NEW         [  1]    ***   
       EOM_NONIT            EOMNON         OFF         [  0]    ***   
       EOM_NSING            IEOMSI          10D-  0             ***   
       EOM_NSTATES          IMRCCD         DAVIDSON    [  0]    ***   
       EOM_NTRIP            IEOMTR          10D-  0             ***   
       EOM_ORDER            IEXORD         ENERGY      [  0]    ***   
       EOM_PROPSTA          IEOMST              0               ***   
       ESTATE_CONV          IEXTOL          10D-  5             ***   
       ESTATE_DIAG          IEXDIG         ITERATIVE   [  0]    ***   
       ESTATE_LOCK          IESLOC         ON          [  1]    ***   
       ESTATE_MAXC          IEXMXC             40               ***   
       ESTATE_PROP          IEXPRP         OFF         [  0]    ***   
       EVAL_HESS            IRECAL              0            # of cyc.
       EXCITATION           IEXCIT              0               ***   
       EXCITE               IEXCIT         NONE        [  0]    ***   
       EXTERN_POT           IEXPOT         OFF         [  0]    ***   
       FCGRADNEW            IFCGNW         OFF         [  0]    ***   
       FC_FIELD             IFINFC              0             x 10-6  
       FD_CALTYPE           IFDCAL         GRADONLY    [  0]    ***   
       FD_PROJECT           IFDPRJ         OFF         [  1]    ***   
       FD_STEPSIZE          IDISFD              0            10-4 bohr
       FD_USEGROUP          IFDGRP         FULL        [  0]    ***   
       FILE_RECSIZ          IFLREC              4096           words  
       FINITE_PERT          IFIPER              0             x 10-6  
       FIXGEOM              IFIXGM         OFF         [  0]    ***   
       FOCK                 IFOCK          AO          [  1]    ***   
       FREQ_ALGORI          IVIALG         STANDARD    [  0]    ***   
       FROZEN_CORE          IFROCO         OFF         [  0]    ***   
       GAMMA_ABCD           IGABCD         STORE       [  0]    ***   
       GAMMA_ABCI           IGABCI         STORE       [  0]    ***   
       GENBAS_1             IGNBS1              0               ***   
       GENBAS_2             IGNBS2              0               ***   
       GENBAS_3             IGNBS3              0               ***   
       GENBAS_4             IGNBS4              0               ***   
       GEO_CONV             ICONTL              5              H/bohr 
       GEO_MAXCYC           IOPTCY             50               ***   
       GEO_MAXSTEP          IMXSTP            300            millibohr
       GEO_METHOD           INR            SINGLE_POINT[  5]    ***   
       GIAO                 IGIAO          OFF         [  1]    ***   
       GIMIC                IGIMIC         OFF         [  0]    ***   
       GRID                 IGRID          OFF         [  0]    ***   
       GRID_ALGO            IGALGO         SERIAL      [  0]    ***   
       GUESS                IGUESS         MOREAD      [  0]    ***   
       HBAR                 IHBAR          OFF         [  0]    ***   
       HESS_TYPE            IHESTP         SCF         [  0]    ***   
       HF2_FILE             IHF2Fl         USE         [  1]    ***   
       HFSTABILITY          ISTABL         OFF         [  0]    ***   
       INCORE               INCORE         OFF         [  0]    ***   
       INPUT_MRCC           IMRCC          ON          [  1]    ***   
       INTEGRALS            INTTYP         VMOL        [  1]    ***   
       JODA_PRINT           IJPRNT              0               ***   
       KEYWORD_OUT          IDMPKW         NO          [  0]    ***   
       LINDEP_TOL           ILINDP              8               ***   
       LINEQ_CONV           IZTACN          10D-  7           cycles  
       LINEQ_EXPOR          ILMAXD              5               ***   
       LINEQ_MAXCY          ILMAXC            100               ***   
       LINEQ_TYPE           ILTYPE         DIIS        [  1]    ***   
       LOCK_ORBOCC          ILOCOC         OFF         [  0]    ***   
       MEMORY_SIZE          IMEMSZ         *********           words  
       MEM_UNIT             IMEMU          GB          [  3]    ***   
       MRCC                 IMRCCC         OFF         [  0]    ***   
       MULTIPLICTY          IMULTP              3               ***   
       NACOUPLING           IVCOUP         OFF         [  0]    ***   
       NEGEVAL              IDIE           ABORT       [  0]    ***   
       NEWNORM              INEWNO         OFF         [  0]    ***   
       NON-HF               INONHF         OFF         [  0]    ***   
       NTOP_TAMP            ITOPT2             15               ***   
       NUC_MODEL            INUCMO         POINT       [  0]    ***   
       OCCUPATION           IOCCU  A   2,  1,  1,  0,  1,  0,  0,  0,
                                   B   2,  1,  0,  0,  0,  0,  0,  0,
       OPEN-SHELL           IOPEN          SPIN-ORBITAL[  0]    ***   
       OPTVIB               IOPTVB         OFF         [  0]    ***   
       ORBITALS             IORBTP         STANDARD    [  0]    ***   
       PARALLEL             IPARAL         ON          [  1]    ***   
       PARA_INT             IPINTS         ON          [  1]    ***   
       PARA_PRINT           IPPRIN              0               ***   
       PERT_ORB             IPTORB         STANDARD    [  0]    ***   
       POINTS               IGRDFD              0               ***   
       PRINT                IPRNT               0               ***   
       PROPS                IPROPS         OFF         [  0]    ***   
       PROP_INTEGR          IINTYP         INTERNAL    [  0]    ***   
       PSI                  IPSI           OFF         [  0]    ***   
       QC_ALG               IQCALG         FLM         [  0]    ***   
       QC_LINALG            IQCLIN         TRIDIAG     [  2]    ***   
       QC_MAXCYC            IQCMAX          10D-100           cycles  
       QC_MAXSCFCY          IQCMSC          10D- 15           cycles  
       QC_RTRUST            IQCRTR          10D-  0           x 10-3  
       QC_SKIPSCF           IQCSKI         OFF         [  0]    ***   
       QC_START             IQCSTA          10D-  1             ***   
       QRHFGUESS            IQGUES         OFF         [  0]    ***   
       QUARTIC              IQUART         OFF         [  0]    ***   
       RAMAN_INT            IRAMIN         OFF         [  0]    ***   
       RAMAN_ORB            IRAMRE         UNRELAXED   [  0]    ***   
       RDO                  IRDOFM         ON          [  1]    ***   
       REDUCE_REPR          REDREP         Ir          [  0]    ***   
       REFERENCE            IREFNC         UHF         [  1]    ***   
       RELATIVIST           IRELAT         OFF         [  0]    ***   
       RELAX_DENS           IRDENS         ON          [  1]    ***   
       RESET_FLAGS          IRESET         OFF         [  0]    ***   
       RESTART_CC           ICCRES         OFF         [  0]    ***   
       ROT_EVEC             ROTVEC              0               ***   
       SAVE_INTS            ISVINT         ON          [  1]    ***   
       SCALE_ON             ISTCRT              0               ***   
       SCF_CONV             ISCFCV          10D-  9             ***   
       SCF_DAMPING          IDAMP               0             x 10-3  
       SCF_EXPORDE          IRPPOR              6               ***   
       SCF_EXPSTAR          IRPPLS              5               ***   
       SCF_EXTRAPO          IRPP           ON          [  1]    ***   
       SCF_MAXCYC           ISCFCY            ***              cycles 
       SCF_NOSTOP           ISCFST         OFF         [  0]    ***   
       SCF_PRINT            ISCFPR              0               ***   
       SCF_PROG             ISCFPR         SCF         [  0]    ***   
       SD_FIELD             IFINSD              0             x 10-6  
       SOPERT               IPERSO         OFF         [  0]    ***   
       SPHERICAL            IDFGHI         ON          [  1]    ***   
       SPINORBIT            ISOCAL         OFF         [  0]    ***   
       SPINROTATIO          ISRCON         OFF         [  0]    ***   
       SPIN_FLIP            ISPFLP         OFF         [  0]    ***   
       SPIN_ORBIT           ISPORB         OFF         [  0]    ***   
       SPIN_SCAL            ISCSMP         OFF         [  0]    ***   
       STEEPSCALE           ISTPSC              1000          x 10-3  
       SUBGROUP             ISUBGP         DEFAULT     [  0]    ***   
       SUBGRPAXIS           ISBXYZ         X           [  0]    ***   
       SYMMETRY             ISYM           ON          [  0]    ***   
       SYM_CHECK            ISYMCK         OVERRIDE    [  1]    ***   
       T3_EXTRAPOL          IT3EXT         ON          [  1]    ***   
       T4_EXTRAPOL          IT4EXP         OFF         [  0]    ***   
       TAMP_SUM             IEVERY              5               ***   
       TESTSUITE            ITESTS         OFF         [  0]    ***   
       THERMOCH             ITHERM         OFF         [  0]    ***   
       TOL_CHOLESK          ITOLCH          10D-  4             ***   
       TRANGRAD             IRESRM         OFF         [  0]    ***   
       TRANS_INV            ITRAIN         IGNORE      [  1]    ***   
       TREAT_PERT           ITREAT         SIMULTANEOUS[  0]    ***   
       TRIP_ALGORI          ITRALG         NORMAL      [  0]    ***   
       UIJ_THRESHO          IUIJTH              1               ***   
       UNITS                IUNITS         ANGSTROM    [  0]    ***   
       UNOS                 IUNOS          OFF         [  0]    ***   
       UPDATE_HESS          IHUPDT         ON          [  1]    ***   
       VIBPHASE             ISETPH         STANDARD    [  0]    ***   
       VIBRATION            IVIB           ANALYTIC    [  1]    ***   
       VIB_ALGORIT          IGEALG         STANDARD    [  0]    ***   
       VNATORB              IVNORB         OFF         [  0]    ***   
       VTRAN                IVTRAN         FULL/PARTIAL[  0]    ***   
       XFIELD               IXEFLD              0             x 10-6  
       XFORM_TOL            IXFTOL          10D- 18             ***   
       YFIELD               IYEFLD              0             x 10-6  
       ZFIELD               IZEFLD              0             x 10-6  
       ZSCALE_EXP           IZEXPS         OFF         [  0]    ***   
    -------------------------------------------------------------------
   1 entries found in Z-matrix 
   Job Title : TITLE                                                                           
   Rotational constants (in cm-1): 

   Rotational constants (in MHz): 

********************************************************************************
   The full molecular point group is I h .
   The largest Abelian subgroup of the full molecular point group is D2h .
   The computational point group is D2h .
********************************************************************************
  ECPDATA file not present.   Using default ECPDATA. 
  @GTFLGS-W, Keyword #SCF_DAMPING not known and is ignored.
  There are  231 basis functions.
 @CHECKOUT-I, Total execution time (CPU/WALL):        0.06/       0.16 seconds.
--executable xjoda finished with status     0 in        0.21 seconds (walltime).
 --invoking executable--
/cvmfs/restricted.computecanada.ca/easybuild/software/2023/x86-64-v4/Compiler/intel2023/cfour/2.1/bin/xvmol
 SERIAL VERSION OF MOLECULE STARTED
********************************************************************************
                    INPUT FROM MOL FILE
********************************************************************************
INTGRL        1    0    1    0    0    0    0    0    0                         
         *** CFOUR Program System (Release V0.1) ***                            
TITLE                                                                           
    1    3 X  Y   Z   0.10E-08              0    0                              
   9999.00      3.00                                                            
          8.00000000    1    7    1    1    1    1    1    1    1               
O #1   0.000000000000000   0.000000000000000   0.000000000000000                
   22   13                                                                      
   570800.000000000       6.000000000000000E-006 -1.000000000000000E-006        
  0.000000000000000E+000  0.000000000000000E+000  0.000000000000000E+000        
  0.000000000000000E+000  0.000000000000000E+000  0.000000000000000E+000        
  0.000000000000000E+000  0.000000000000000E+000  0.000000000000000E+000        
  0.000000000000000E+000  0.000000000000000E+000                                
   85480.0000000000       4.300000000000000E-005 -1.000000000000000E-005        
  0.000000000000000E+000  0.000000000000000E+000  0.000000000000000E+000        
  0.000000000000000E+000  0.000000000000000E+000  0.000000000000000E+000        
  0.000000000000000E+000  0.000000000000000E+000  0.000000000000000E+000        
  0.000000000000000E+000  0.000000000000000E+000                                
   19460.0000000000       2.270000000000000E-004 -5.100000000000000E-005        
  0.000000000000000E+000  0.000000000000000E+000  0.000000000000000E+000        
  0.000000000000000E+000  0.000000000000000E+000  0.000000000000000E+000        
  0.000000000000000E+000  0.000000000000000E+000  0.000000000000000E+000        
  0.000000000000000E+000  0.000000000000000E+000                                
   5512.00000000000       9.560000000000000E-004 -2.170000000000000E-004        
  0.000000000000000E+000  0.000000000000000E+000  0.000000000000000E+000        
  0.000000000000000E+000  0.000000000000000E+000  0.000000000000000E+000        
  0.000000000000000E+000  0.000000000000000E+000  0.000000000000000E+000        
  0.000000000000000E+000  0.000000000000000E+000                                
   1798.00000000000       3.473000000000000E-003 -7.920000000000000E-004        
  0.000000000000000E+000  0.000000000000000E+000  0.000000000000000E+000        
  0.000000000000000E+000  0.000000000000000E+000  0.000000000000000E+000        
  0.000000000000000E+000  0.000000000000000E+000  0.000000000000000E+000        
  0.000000000000000E+000  0.000000000000000E+000                                
   648.900000000000       1.119800000000000E-002 -2.559000000000000E-003        
  0.000000000000000E+000  0.000000000000000E+000  0.000000000000000E+000        
  0.000000000000000E+000  0.000000000000000E+000  0.000000000000000E+000        
  0.000000000000000E+000  0.000000000000000E+000  0.000000000000000E+000        
  0.000000000000000E+000  0.000000000000000E+000                                
   253.100000000000       3.238800000000000E-002 -7.533000000000000E-003        
  0.000000000000000E+000  0.000000000000000E+000  0.000000000000000E+000        
  0.000000000000000E+000  0.000000000000000E+000  0.000000000000000E+000        
  0.000000000000000E+000  0.000000000000000E+000  0.000000000000000E+000        
  0.000000000000000E+000  0.000000000000000E+000                                
   104.900000000000       8.286000000000000E-002 -1.978900000000000E-002        
  0.000000000000000E+000  0.000000000000000E+000  0.000000000000000E+000        
  0.000000000000000E+000  0.000000000000000E+000  0.000000000000000E+000        
  0.000000000000000E+000  0.000000000000000E+000  0.000000000000000E+000        
  0.000000000000000E+000  0.000000000000000E+000                                
   45.6500000000000       0.179584000000000      -4.606300000000000E-002        
  0.000000000000000E+000  0.000000000000000E+000  0.000000000000000E+000        
  0.000000000000000E+000  0.000000000000000E+000  0.000000000000000E+000        
  0.000000000000000E+000  0.000000000000000E+000  0.000000000000000E+000        
  0.000000000000000E+000  0.000000000000000E+000                                
   20.6200000000000       0.305221000000000      -8.919600000000000E-002        
  0.000000000000000E+000  0.000000000000000E+000  0.000000000000000E+000        
  0.000000000000000E+000  0.000000000000000E+000  0.000000000000000E+000        
  0.000000000000000E+000  0.000000000000000E+000  0.000000000000000E+000        
  0.000000000000000E+000  0.000000000000000E+000                                
   9.58700000000000       0.340893000000000      -0.137542000000000             
  0.000000000000000E+000  0.000000000000000E+000  0.000000000000000E+000        
  0.000000000000000E+000  0.000000000000000E+000  0.000000000000000E+000        
  0.000000000000000E+000  0.000000000000000E+000  0.000000000000000E+000        
  0.000000000000000E+000  0.000000000000000E+000                                
   4.49300000000000       0.177426000000000      -0.105119000000000             
   1.00000000000000       0.000000000000000E+000  0.000000000000000E+000        
  0.000000000000000E+000  0.000000000000000E+000  0.000000000000000E+000        
  0.000000000000000E+000  0.000000000000000E+000  0.000000000000000E+000        
  0.000000000000000E+000  0.000000000000000E+000                                
   1.83700000000000       2.049100000000000E-002  0.144771000000000             
  0.000000000000000E+000   1.00000000000000       0.000000000000000E+000        
  0.000000000000000E+000  0.000000000000000E+000  0.000000000000000E+000        
  0.000000000000000E+000  0.000000000000000E+000  0.000000000000000E+000        
  0.000000000000000E+000  0.000000000000000E+000                                
  0.834900000000000      -9.680000000000000E-004  0.441463000000000             
  0.000000000000000E+000  0.000000000000000E+000   1.00000000000000             
  0.000000000000000E+000  0.000000000000000E+000  0.000000000000000E+000        
  0.000000000000000E+000  0.000000000000000E+000  0.000000000000000E+000        
  0.000000000000000E+000  0.000000000000000E+000                                
  0.365800000000000       1.057000000000000E-003  0.444681000000000             
  0.000000000000000E+000  0.000000000000000E+000  0.000000000000000E+000        
   1.00000000000000       0.000000000000000E+000  0.000000000000000E+000        
  0.000000000000000E+000  0.000000000000000E+000  0.000000000000000E+000        
  0.000000000000000E+000  0.000000000000000E+000                                
  0.157000000000000      -9.700000000000000E-005  0.128243000000000             
  0.000000000000000E+000  0.000000000000000E+000  0.000000000000000E+000        
  0.000000000000000E+000   1.00000000000000       0.000000000000000E+000        
  0.000000000000000E+000  0.000000000000000E+000  0.000000000000000E+000        
  0.000000000000000E+000  0.000000000000000E+000                                
   317.096000000000       0.000000000000000E+000  0.000000000000000E+000        
  0.000000000000000E+000  0.000000000000000E+000  0.000000000000000E+000        
  0.000000000000000E+000  0.000000000000000E+000   1.00000000000000             
  0.000000000000000E+000  0.000000000000000E+000  0.000000000000000E+000        
  0.000000000000000E+000  0.000000000000000E+000                                
   160.393000000000       0.000000000000000E+000  0.000000000000000E+000        
  0.000000000000000E+000  0.000000000000000E+000  0.000000000000000E+000        
  0.000000000000000E+000  0.000000000000000E+000  0.000000000000000E+000        
   1.00000000000000       0.000000000000000E+000  0.000000000000000E+000        
  0.000000000000000E+000  0.000000000000000E+000                                
   81.1290000000000       0.000000000000000E+000  0.000000000000000E+000        
  0.000000000000000E+000  0.000000000000000E+000  0.000000000000000E+000        
  0.000000000000000E+000  0.000000000000000E+000  0.000000000000000E+000        
  0.000000000000000E+000   1.00000000000000       0.000000000000000E+000        
  0.000000000000000E+000  0.000000000000000E+000                                
   41.0370000000000       0.000000000000000E+000  0.000000000000000E+000        
  0.000000000000000E+000  0.000000000000000E+000  0.000000000000000E+000        
  0.000000000000000E+000  0.000000000000000E+000  0.000000000000000E+000        
  0.000000000000000E+000  0.000000000000000E+000   1.00000000000000             
  0.000000000000000E+000  0.000000000000000E+000                                
   20.7570000000000       0.000000000000000E+000  0.000000000000000E+000        
  0.000000000000000E+000  0.000000000000000E+000  0.000000000000000E+000        
  0.000000000000000E+000  0.000000000000000E+000  0.000000000000000E+000        
  0.000000000000000E+000  0.000000000000000E+000  0.000000000000000E+000        
   1.00000000000000       0.000000000000000E+000                                
  5.935000000000000E-002  0.000000000000000E+000  0.000000000000000E+000        
  0.000000000000000E+000  0.000000000000000E+000  0.000000000000000E+000        
  0.000000000000000E+000  0.000000000000000E+000  0.000000000000000E+000        
  0.000000000000000E+000  0.000000000000000E+000  0.000000000000000E+000        
  0.000000000000000E+000   1.00000000000000                                     
   15   11                                                                      
   525.600000000000       1.670000000000000E-004  0.000000000000000E+000        
  0.000000000000000E+000  0.000000000000000E+000  0.000000000000000E+000        
  0.000000000000000E+000  0.000000000000000E+000  0.000000000000000E+000        
  0.000000000000000E+000  0.000000000000000E+000  0.000000000000000E+000        
   124.600000000000       1.433000000000000E-003  0.000000000000000E+000        
  0.000000000000000E+000  0.000000000000000E+000  0.000000000000000E+000        
  0.000000000000000E+000  0.000000000000000E+000  0.000000000000000E+000        
  0.000000000000000E+000  0.000000000000000E+000  0.000000000000000E+000        
   40.3400000000000       7.548000000000000E-003  0.000000000000000E+000        
  0.000000000000000E+000  0.000000000000000E+000  0.000000000000000E+000        
  0.000000000000000E+000  0.000000000000000E+000  0.000000000000000E+000        
  0.000000000000000E+000  0.000000000000000E+000  0.000000000000000E+000        
   15.1800000000000       2.859500000000000E-002  0.000000000000000E+000        
  0.000000000000000E+000  0.000000000000000E+000  0.000000000000000E+000        
  0.000000000000000E+000  0.000000000000000E+000  0.000000000000000E+000        
  0.000000000000000E+000  0.000000000000000E+000  0.000000000000000E+000        
   6.24500000000000       8.438900000000001E-002  0.000000000000000E+000        
  0.000000000000000E+000  0.000000000000000E+000  0.000000000000000E+000        
  0.000000000000000E+000  0.000000000000000E+000  0.000000000000000E+000        
  0.000000000000000E+000  0.000000000000000E+000  0.000000000000000E+000        
   2.73200000000000       0.187483000000000        1.00000000000000             
  0.000000000000000E+000  0.000000000000000E+000  0.000000000000000E+000        
  0.000000000000000E+000  0.000000000000000E+000  0.000000000000000E+000        
  0.000000000000000E+000  0.000000000000000E+000  0.000000000000000E+000        
   1.22700000000000       0.297906000000000       0.000000000000000E+000        
   1.00000000000000       0.000000000000000E+000  0.000000000000000E+000        
  0.000000000000000E+000  0.000000000000000E+000  0.000000000000000E+000        
  0.000000000000000E+000  0.000000000000000E+000  0.000000000000000E+000        
  0.549200000000000       0.338558000000000       0.000000000000000E+000        
  0.000000000000000E+000   1.00000000000000       0.000000000000000E+000        
  0.000000000000000E+000  0.000000000000000E+000  0.000000000000000E+000        
  0.000000000000000E+000  0.000000000000000E+000  0.000000000000000E+000        
  0.241800000000000       0.247261000000000       0.000000000000000E+000        
  0.000000000000000E+000  0.000000000000000E+000   1.00000000000000             
  0.000000000000000E+000  0.000000000000000E+000  0.000000000000000E+000        
  0.000000000000000E+000  0.000000000000000E+000  0.000000000000000E+000        
  0.102500000000000       7.003300000000000E-002  0.000000000000000E+000        
  0.000000000000000E+000  0.000000000000000E+000  0.000000000000000E+000        
   1.00000000000000       0.000000000000000E+000  0.000000000000000E+000        
  0.000000000000000E+000  0.000000000000000E+000  0.000000000000000E+000        
   358.911000000000       0.000000000000000E+000  0.000000000000000E+000        
  0.000000000000000E+000  0.000000000000000E+000  0.000000000000000E+000        
  0.000000000000000E+000   1.00000000000000       0.000000000000000E+000        
  0.000000000000000E+000  0.000000000000000E+000  0.000000000000000E+000        
   161.818000000000       0.000000000000000E+000  0.000000000000000E+000        
  0.000000000000000E+000  0.000000000000000E+000  0.000000000000000E+000        
  0.000000000000000E+000  0.000000000000000E+000   1.00000000000000             
  0.000000000000000E+000  0.000000000000000E+000  0.000000000000000E+000        
   72.9570000000000       0.000000000000000E+000  0.000000000000000E+000        
  0.000000000000000E+000  0.000000000000000E+000  0.000000000000000E+000        
  0.000000000000000E+000  0.000000000000000E+000  0.000000000000000E+000        
   1.00000000000000       0.000000000000000E+000  0.000000000000000E+000        
   32.8930000000000       0.000000000000000E+000  0.000000000000000E+000        
  0.000000000000000E+000  0.000000000000000E+000  0.000000000000000E+000        
  0.000000000000000E+000  0.000000000000000E+000  0.000000000000000E+000        
  0.000000000000000E+000   1.00000000000000       0.000000000000000E+000        
   14.8300000000000       0.000000000000000E+000  0.000000000000000E+000        
  0.000000000000000E+000  0.000000000000000E+000  0.000000000000000E+000        
  0.000000000000000E+000  0.000000000000000E+000  0.000000000000000E+000        
  0.000000000000000E+000  0.000000000000000E+000   1.00000000000000             
    9    9                                                                      
   8.25300000000000        1.00000000000000       0.000000000000000E+000        
  0.000000000000000E+000  0.000000000000000E+000  0.000000000000000E+000        
  0.000000000000000E+000  0.000000000000000E+000  0.000000000000000E+000        
  0.000000000000000E+000                                                        
   3.59700000000000       0.000000000000000E+000   1.00000000000000             
  0.000000000000000E+000  0.000000000000000E+000  0.000000000000000E+000        
  0.000000000000000E+000  0.000000000000000E+000  0.000000000000000E+000        
  0.000000000000000E+000                                                        
   1.56800000000000       0.000000000000000E+000  0.000000000000000E+000        
   1.00000000000000       0.000000000000000E+000  0.000000000000000E+000        
  0.000000000000000E+000  0.000000000000000E+000  0.000000000000000E+000        
  0.000000000000000E+000                                                        
  0.684000000000000       0.000000000000000E+000  0.000000000000000E+000        
  0.000000000000000E+000   1.00000000000000       0.000000000000000E+000        
  0.000000000000000E+000  0.000000000000000E+000  0.000000000000000E+000        
  0.000000000000000E+000                                                        
  0.298000000000000       0.000000000000000E+000  0.000000000000000E+000        
  0.000000000000000E+000  0.000000000000000E+000   1.00000000000000             
  0.000000000000000E+000  0.000000000000000E+000  0.000000000000000E+000        
  0.000000000000000E+000                                                        
   250.830000000000       0.000000000000000E+000  0.000000000000000E+000        
  0.000000000000000E+000  0.000000000000000E+000  0.000000000000000E+000        
   1.00000000000000       0.000000000000000E+000  0.000000000000000E+000        
  0.000000000000000E+000                                                        
   108.163000000000       0.000000000000000E+000  0.000000000000000E+000        
  0.000000000000000E+000  0.000000000000000E+000  0.000000000000000E+000        
  0.000000000000000E+000   1.00000000000000       0.000000000000000E+000        
  0.000000000000000E+000                                                        
   46.6420000000000       0.000000000000000E+000  0.000000000000000E+000        
  0.000000000000000E+000  0.000000000000000E+000  0.000000000000000E+000        
  0.000000000000000E+000  0.000000000000000E+000   1.00000000000000             
  0.000000000000000E+000                                                        
   20.1130000000000       0.000000000000000E+000  0.000000000000000E+000        
  0.000000000000000E+000  0.000000000000000E+000  0.000000000000000E+000        
  0.000000000000000E+000  0.000000000000000E+000  0.000000000000000E+000        
   1.00000000000000                                                             
    7    7                                                                      
   5.43000000000000        1.00000000000000       0.000000000000000E+000        
  0.000000000000000E+000  0.000000000000000E+000  0.000000000000000E+000        
  0.000000000000000E+000  0.000000000000000E+000                                
   2.41600000000000       0.000000000000000E+000   1.00000000000000             
  0.000000000000000E+000  0.000000000000000E+000  0.000000000000000E+000        
  0.000000000000000E+000  0.000000000000000E+000                                
   1.07500000000000       0.000000000000000E+000  0.000000000000000E+000        
   1.00000000000000       0.000000000000000E+000  0.000000000000000E+000        
  0.000000000000000E+000  0.000000000000000E+000                                
  0.478000000000000       0.000000000000000E+000  0.000000000000000E+000        
  0.000000000000000E+000   1.00000000000000       0.000000000000000E+000        
  0.000000000000000E+000  0.000000000000000E+000                                
   136.111000000000       0.000000000000000E+000  0.000000000000000E+000        
  0.000000000000000E+000  0.000000000000000E+000   1.00000000000000             
  0.000000000000000E+000  0.000000000000000E+000                                
   48.8550000000000       0.000000000000000E+000  0.000000000000000E+000        
  0.000000000000000E+000  0.000000000000000E+000  0.000000000000000E+000        
   1.00000000000000       0.000000000000000E+000                                
   17.5360000000000       0.000000000000000E+000  0.000000000000000E+000        
  0.000000000000000E+000  0.000000000000000E+000  0.000000000000000E+000        
  0.000000000000000E+000   1.00000000000000                                     
    5    5                                                                      
   5.21100000000000        1.00000000000000       0.000000000000000E+000        
  0.000000000000000E+000  0.000000000000000E+000  0.000000000000000E+000        
   2.19000000000000       0.000000000000000E+000   1.00000000000000             
  0.000000000000000E+000  0.000000000000000E+000  0.000000000000000E+000        
  0.920000000000000       0.000000000000000E+000  0.000000000000000E+000        
   1.00000000000000       0.000000000000000E+000  0.000000000000000E+000        
   81.6280000000000       0.000000000000000E+000  0.000000000000000E+000        
  0.000000000000000E+000   1.00000000000000       0.000000000000000E+000        
   24.0650000000000       0.000000000000000E+000  0.000000000000000E+000        
  0.000000000000000E+000  0.000000000000000E+000   1.00000000000000             
    3    3                                                                      
   3.87200000000000        1.00000000000000       0.000000000000000E+000        
  0.000000000000000E+000                                                        
   1.50500000000000       0.000000000000000E+000   1.00000000000000             
  0.000000000000000E+000                                                        
   62.8500000000000       0.000000000000000E+000  0.000000000000000E+000        
   1.00000000000000                                                             
    1    1                                                                      
   2.77300000000000        1.00000000000000                                     
FINISH                                                                          
 
********************************************************************************
 ONE- AND TWO-ELECTRON INTEGRALS OVER SYMMETRY-ADAPTED AOS ARE CALCULATED.

  SPHERICAL HARMONICS ARE USED.
  
  INTEGRALS LESS THAN  0.10E-13 ARE NEGLECTED.

  NUCLEAR REPULSION ENERGY :    0.0000000000 A.U.
  @MOLECU-I, ONE ELECTRON INTEGRALS (CPU/WALL):        0.22/       0.07 SECONDS.
  @TWOEL-I,     931609 INTEGRALS OF SYMMETRY TYPE  I I I I
  @TWOEL-I,    8207097 INTEGRALS OF SYMMETRY TYPE  I J I J
  @TWOEL-I,    4694174 INTEGRALS OF SYMMETRY TYPE  I I J J
  @TWOEL-I,   19773597 INTEGRALS OF SYMMETRY TYPE  I J K L
  @TWOEL-I, TOTAL NUMBER OF 2-E INTEGRALS   33606477.
  @MOLECU-I, TWO ELECTRON INTEGRALS (CPU/WALL):      124.72/      31.39 SECONDS.
 @CHECKOUT-I, Total execution time (CPU/WALL):      124.97/      31.49 seconds.

Running with 4 threads/proc

--executable xvmol finished with status     0 in       31.53 seconds (walltime).
 --invoking executable--
/cvmfs/restricted.computecanada.ca/easybuild/software/2023/x86-64-v4/Compiler/intel2023/cfour/2.1/bin/xvmol2ja
 @GETMEM-I,  Allocated   23841 MB of main memory.
 @CHECKOUT-I, Total execution time (CPU/WALL):        0.10/       0.03 seconds.
--executable xvmol2ja finished with status     0 in        0.07 seconds (walltime).
 --invoking executable--
/cvmfs/restricted.computecanada.ca/easybuild/software/2023/x86-64-v4/Compiler/intel2023/cfour/2.1/bin/xvscf
  There are  231 functions in the AO basis.

  There are 8 irreducible representations.

       Irrep        # of functions
         1                 50
         2                 34
         3                 34
         4                 22
         5                 34
         6                 22
         7                 22
         8                 13


  Parameters for SCF calculation: 
        SCF reference function:  UHF  
  Maximum number of iterations: 9999
     Full symmetry point group: I h 
     Computational point group: D2h 
        Initial density matrix: MOREAD                 
     SCF convergence tolerance: 10**(- 9)
  DIIS convergence acceleration:  ON
          Latest start for DIIS:   5
                     DIIS order:   6

     Alpha population by irrep:   2    1    1    0    1    0    0    0
      Beta population by irrep:   2    1    0    0    0    0    0    0


  Memory information:    3566671 words required.
  Fock matrices are constructed from AO integral file.
 @GETMEM-I,  Allocated      27 MB of main memory.
  Initialization and symmetry analysis required      0.002 seconds.

 total no. of electrons in initial guess :  0.000000000000000E+000
 total no. of electrons in initial guess :  0.000000000000000E+000
  --------------------------------------------------------------------
  Iteration         Total Energy            Largest Density Difference
  --------------------------------------------------------------------
       0             0.000000000000000              0.0000000000D+00
   current occupation vector 
     2  1  1  0  1  0  0  0
     2  1  0  0  0  0  0  0
       1           -66.704969935553265              0.9429987069D+01
   current occupation vector 
     2  1  1  0  1  0  0  0
     2  1  0  0  0  0  0  0
       2           -70.058839283819722              0.9428746736D+01
   current occupation vector 
     2  1  1  0  1  0  0  0
     2  1  0  0  0  0  0  0
       3           -73.795488251268011              0.2270472524D+01
   current occupation vector 
     2  1  1  0  1  0  0  0
     2  1  0  0  0  0  0  0
       4           -74.682743997152897              0.1681198146D+01
   current occupation vector 
     2  1  1  0  1  0  0  0
     2  1  0  0  0  0  0  0
       5           -74.805294999309240              0.4447559095D+00
   current occupation vector 
     2  1  1  0  1  0  0  0
     2  1  0  0  0  0  0  0
       6           -74.818829066359314              0.1312160113D+00
   current occupation vector 
     2  1  1  0  1  0  0  0
     2  1  0  0  0  0  0  0
       7           -74.818945675904757              0.1210562171D-01
   current occupation vector 
     2  1  1  0  1  0  0  0
     2  1  0  0  0  0  0  0
       8           -74.818948670327686              0.1365157884D-02
   current occupation vector 
     2  1  1  0  1  0  0  0
     2  1  0  0  0  0  0  0
       9           -74.818949029788996              0.6271619867D-03
   current occupation vector 
     2  1  1  0  1  0  0  0
     2  1  0  0  0  0  0  0
      10           -74.818949064528738              0.2912728661D-03
   current occupation vector 
     2  1  1  0  1  0  0  0
     2  1  0  0  0  0  0  0
      11           -74.818949069151842              0.1094184134D-03
   current occupation vector 
     2  1  1  0  1  0  0  0
     2  1  0  0  0  0  0  0
      12           -74.818949069346417              0.1847004183D-04
   current occupation vector 
     2  1  1  0  1  0  0  0
     2  1  0  0  0  0  0  0
      13           -74.818949069369665              0.7945374326D-05
   current occupation vector 
     2  1  1  0  1  0  0  0
     2  1  0  0  0  0  0  0
      14           -74.818949069371669              0.1679909033D-05
   current occupation vector 
     2  1  1  0  1  0  0  0
     2  1  0  0  0  0  0  0
      15           -74.818949069371172              0.1204962685D-06
   current occupation vector 
     2  1  1  0  1  0  0  0
     2  1  0  0  0  0  0  0
      16           -74.818949069370433              0.1229254254D-08
   current occupation vector 
     2  1  1  0  1  0  0  0
     2  1  0  0  0  0  0  0
      17           -74.818949069370916              0.2157222634D-07
   current occupation vector 
     2  1  1  0  1  0  0  0
     2  1  0  0  0  0  0  0
      18           -74.818949069370632              0.2216241061D-06
   current occupation vector 
     2  1  1  0  1  0  0  0
     2  1  0  0  0  0  0  0
      19           -74.818949069370518              0.1583731288D-06
   current occupation vector 
     2  1  1  0  1  0  0  0
     2  1  0  0  0  0  0  0
      20           -74.818949069371527              0.2779196651D-07
   current occupation vector 
     2  1  1  0  1  0  0  0
     2  1  0  0  0  0  0  0
      21           -74.818949069370873              0.1300592301D-08
   current occupation vector 
     2  1  1  0  1  0  0  0
     2  1  0  0  0  0  0  0

  SCF has converged.

 Density matrix saved to file den.dat
 total alpha spin electron number:   5.00000000000036     
 total  beta spin electron number:   3.00000000000023     
     E(SCF)=       -74.818949069371556              0.7373536226D-09

  Eigenvector printing suppressed.


       The average multiplicity is    3.0062017
  The expectation value of S**2 is    2.0093122

 @PUTMOS-I, Writing converged MOs to NEWMOS. 
 @PUTMOS-I, Symmetry   1 Full Blocks 12 Partial Blocksize   2
 @PUTMOS-I, Symmetry   2 Full Blocks  8 Partial Blocksize   2
 @PUTMOS-I, Symmetry   3 Full Blocks  8 Partial Blocksize   2
 @PUTMOS-I, Symmetry   4 Full Blocks  5 Partial Blocksize   2
 @PUTMOS-I, Symmetry   5 Full Blocks  8 Partial Blocksize   2
 @PUTMOS-I, Symmetry   6 Full Blocks  5 Partial Blocksize   2
 @PUTMOS-I, Symmetry   7 Full Blocks  5 Partial Blocksize   2
 @PUTMOS-I, Symmetry   8 Full Blocks  3 Partial Blocksize   1
 @PUTFOCK-I, Writing converged Fock matrix to NEWFOCK. 
 @PUTFOCK-I, Symmetry   1 Full Blocks 12 Partial Blocksize   2
 @PUTFOCK-I, Symmetry   2 Full Blocks  8 Partial Blocksize   2
 @PUTFOCK-I, Symmetry   3 Full Blocks  8 Partial Blocksize   2
 @PUTFOCK-I, Symmetry   4 Full Blocks  5 Partial Blocksize   2
 @PUTFOCK-I, Symmetry   5 Full Blocks  8 Partial Blocksize   2
 @PUTFOCK-I, Symmetry   6 Full Blocks  5 Partial Blocksize   2
 @PUTFOCK-I, Symmetry   7 Full Blocks  5 Partial Blocksize   2
 @PUTFOCK-I, Symmetry   8 Full Blocks  3 Partial Blocksize   1
  @PRJDEN-I, Basis set contains h and/or higher angular momentum functions.
             Analysis of density matrix symmetry not available.
             Check irreps of the molecular orbitals in the full point group
             for presence of an asymmetric solution.

 
  ORBITAL EIGENVALUES (ALPHA)  (1H = 27.2113834 eV)

       MO #        E(hartree)               E(eV)           FULLSYM    COMPSYM
       ----   --------------------   --------------------   -------   ---------
    1     1         -20.7074129855        -563.4773539708      Ag        Ag (1)
    2     2          -1.4182241203         -38.5918402838      Ag        Ag (1)
    3   141          -0.7110003156         -19.3473021848       u       B1u (5)
    4    85          -0.7110003156         -19.3473021848       u       B3u (3)
    5    51          -0.6115519855         -16.6411755456      Au       B2u (2)
  +++++++++++++++++++++++++++++++++++++++++++++++++++++++++++++++++++++++++++++
    6     3           0.1030976194           2.8054288479      Ag        Ag (1)
    7   142           0.2431905890           6.6175523574       u       B1u (5)
    8    86           0.2431905890           6.6175523574       u       B3u (3)
    9    52           0.2578988026           7.0177831959      Au       B2u (2)
   10     4           0.5724976456          15.5784529312      Ag        Ag (1)
   11     5           0.7830248547          21.3071895320       g        Ag (1)
   12   197           0.7830248547          21.3071895320       g       B2g (7)
   13   175           0.8054272187          21.9167888494       g       B3g (6)
   14   119           0.8054272187          21.9167888494       g       B1g (4)
   15     6           0.8138391139          22.1456881547      Ag        Ag (1)
   16   143           0.9894546375          26.9244294980       u       B1u (5)
   17    87           0.9894546375          26.9244294980       u       B3u (3)
   18    53           1.0272417448          27.9526689620      Au       B2u (2)
   19    88           1.8109527203          49.2785287916       u       B3u (3)
   20   144           1.8109527203          49.2785287916       u       B1u (5)
   21   219           1.8312724047          49.8314555128       u        Au (8)
   22    54           1.8312724047          49.8314555128       u       B2u (2)
   23   145           1.8437446148          50.1708416046       u       B1u (5)
   24    89           1.8437446148          50.1708416046       u       B3u (3)
   25    55           1.8479611330          50.2855788996      Au       B2u (2)
   26     7           2.0258968037          55.1274546544      Ag        Ag (1)
   27   198           2.2828874284          62.1205250725       g       B2g (7)
   28     8           2.2828874284          62.1205250725       g        Ag (1)
   29   176           2.3289569716          63.3741410750       g       B3g (6)
   30   120           2.3289569716          63.3741410751       g       B1g (4)
   31     9           2.3455250684          63.8249819109      Ag        Ag (1)
   32   146           2.8465581284          77.4587846035       u       B1u (5)
   33    90           2.8465581284          77.4587846035       u       B3u (3)
   34    56           2.9062362894          79.0827099205      Au       B2u (2)
   35   199           4.4847152858         122.0353070804       g       B2g (7)
   36    10           4.4847152858         122.0353070804       g        Ag (1)
   37   121           4.5097049219         122.7153096511       g       B1g (4)
   38   177           4.5097049219         122.7153096511       g       B3g (6)
   39   200           4.5278252775         123.2083895935       g       B2g (7)
   40    11           4.5278252775         123.2083895935       g        Ag (1)
   41   178           4.5388176364         123.5075068862       g       B3g (6)
   42   122           4.5388176364         123.5075068862       g       B1g (4)
   43    12           4.5425032358         123.6077971452      Ag        Ag (1)
   44    91           4.9639146855         135.0749856720       u       B3u (3)
   45   147           4.9639146855         135.0749856720       u       B1u (5)
   46    57           5.0022781569         136.1189088009       u       B2u (2)
   47   220           5.0022781569         136.1189088009       u        Au (8)
   48   148           5.0255760212         136.7528759188       u       B1u (5)
   49    92           5.0255760212         136.7528759188       u       B3u (3)
   50    58           5.0333998425         136.9657729198      Au       B2u (2)
   51   201           5.7094023199         155.3607355115       g       B2g (7)
   52    13           5.7094023199         155.3607355115       g        Ag (1)
   53   179           5.7679013134         156.9525740531       g       B3g (6)
   54   123           5.7679013134         156.9525740531       g       B1g (4)
   55    14           5.7882566912         157.5064720411      Ag        Ag (1)
   56    15           6.0704903366         165.1864399752      Ag        Ag (1)
   57    93           7.2715811327         197.8697821264       u       B3u (3)
   58   149           7.2715811327         197.8697821264       u       B1u (5)
   59    59           7.3456051468         199.8840779558      Au       B2u (2)
   60   150           9.0206043503         245.4631234765       u       B1u (5)
   61    94           9.0206043503         245.4631234765       u       B3u (3)
   62   221           9.0471480517         246.1854143127                Au (8)
   63    60           9.0471480517         246.1854143127               B2u (2)
   64   151           9.0679886937         246.7525170125       u       B1u (5)
   65    95           9.0679886937         246.7525170125       u       B3u (3)
   66    61           9.0829824616         247.1605181791       u       B2u (2)
   67   222           9.0829824616         247.1605181792       u        Au (8)
   68   152           9.0920226396         247.4065139273       u       B1u (5)
   69    96           9.0920226396         247.4065139273       u       B3u (3)
   70    62           9.0950434461         247.4887142525      Au       B2u (2)
   71    97          11.7908960204         320.8465922394       u       B3u (3)
   72   153          11.7908960204         320.8465922394       u       B1u (5)
   73   223          11.8402175084         322.1886981608       u        Au (8)
   74    63          11.8402175084         322.1886981608       u       B2u (2)
   75   154          11.8700337147         323.0000383813       u       B1u (5)
   76    98          11.8700337147         323.0000383813       u       B3u (3)
   77    64          11.8800138206         323.2716108690      Au       B2u (2)
   78    16          12.2575430950         333.5447046987       g        Ag (1)
   79   202          12.2575430950         333.5447046987       g       B2g (7)
   80   124          12.2965661458         334.6065758981       g       B1g (4)
   81   180          12.2965661458         334.6065758981       g       B3g (6)
   82    17          12.3246250802         335.3700983173       g        Ag (1)
   83   203          12.3246250802         335.3700983173       g       B2g (7)
   84   125          12.3415417302         335.8304237681       g       B1g (4)
   85   181          12.3415417302         335.8304237681       g       B3g (6)
   86    18          12.3471949313         335.9842551895      Ag        Ag (1)
   87   204          13.6886799653         372.4879187760       g       B2g (7)
   88    19          13.6886799653         372.4879187760       g        Ag (1)
   89   182          13.7505753147         374.1721768584       g       B3g (6)
   90   126          13.7505753147         374.1721768585       g       B1g (4)
   91    20          13.7716886536         374.7467000181      Ag        Ag (1)
   92    21          17.1776571216         467.4278138494      Ag        Ag (1)
   93   155          18.0047931892         489.9353305097       u       B1u (5)
   94    99          18.0047931892         489.9353305099       u       B3u (3)
   95    65          18.0806469275         491.9994156631      Au       B2u (2)
   96   205          19.8361817998         539.7699481454    XXXX      XXXX (7)
   97    22          19.8361817998         539.7699481454    XXXX      XXXX (1)
   98   183          19.8648335970         540.5496031841    XXXX      XXXX (6)
   99   127          19.8648335970         540.5496031841    XXXX      XXXX (4)
  100   206          19.8884146885         541.1912773056       g       B2g (7)
  101    23          19.8884146885         541.1912773056       g        Ag (1)
  102   184          19.9068429862         541.6927367818       g       B3g (6)
  103   128          19.9068429862         541.6927367818       g       B1g (4)
  104   207          19.9200533935         542.0522102384       g       B2g (7)
  105    24          19.9200533935         542.0522102384       g        Ag (1)
  106   185          19.9279987162         542.2684134608       g       B3g (6)
  107   129          19.9279987162         542.2684134608       g       B1g (4)
  108    25          19.9306503514         542.3405681231      Ag        Ag (1)
  109   156          25.7385082866         700.3804171321       u       B1u (5)
  110   100          25.7385082866         700.3804171321       u       B3u (3)
  111   224          25.7747083592         701.3654711845                Au (8)
  112    66          25.7747083592         701.3654711845               B2u (2)
  113   101          25.8029965259         702.1352313345       u       B3u (3)
  114   157          25.8029965259         702.1352313345       u       B1u (5)
  115    67          25.8232745605         702.6870247105       u       B2u (2)
  116   225          25.8232745605         702.6870247105       u        Au (8)
  117   102          25.8354706052         703.0188959569       u       B3u (3)
  118   158          25.8354706052         703.0188959569       u       B1u (5)
  119    68          25.8395408587         703.1296531851      Au       B2u (2)
  120   103          27.6988411649         753.7237866751       u       B3u (3)
  121   159          27.6988411649         753.7237866751       u       B1u (5)
  122    69          27.7480835557         755.0637402484       u       B2u (2)
  123   226          27.7480835557         755.0637402484       u        Au (8)
  124   104          27.7777680982         755.8714977163       u       B3u (3)
  125   160          27.7777680982         755.8714977163       u       B1u (5)
  126    70          27.7876869849         756.1414043449      Au       B2u (2)
  127    26          30.8591422824         839.7199520403       g        Ag (1)
  128   208          30.8591422824         839.7199520403       g       B2g (7)
  129   130          30.9013491846         840.8684602388       g       B1g (4)
  130   186          30.9013491846         840.8684602388       g       B3g (6)
  131   209          30.9316176087         841.6921059331       g       B2g (7)
  132    27          30.9316176087         841.6921059331       g        Ag (1)
  133   131          30.9498284723         842.1876487242       g       B1g (4)
  134   187          30.9498284723         842.1876487242       g       B3g (6)
  135    28          30.9559072211         842.3530598881      Ag        Ag (1)
  136   210          32.7771135766         891.9106042770       g       B2g (7)
  137    29          32.7771135766         891.9106042770       g        Ag (1)
  138   188          32.8328260623         893.4266180855       g       B3g (6)
  139   132          32.8328260623         893.4266180855       g       B1g (4)
  140    30          32.8516159919         893.9379180661      Ag        Ag (1)
  141   161          44.8008264324        1219.0924646886       u       B1u (5)
  142   105          44.8008264325        1219.0924646911       u       B3u (3)
  143    71          44.8648797587        1220.8354443085      Au       B2u (2)
  144    31          45.6660359137        1242.6360116057      Ag        Ag (1)
  145   106          78.3148367537        2131.0550488121       u       B3u (3)
  146   162          78.3148367537        2131.0550488121       u       B1u (5)
  147   227          78.3509743418        2132.0384025796       u        Au (8)
  148    72          78.3509743418        2132.0384025796       u       B2u (2)
  149   107          78.3726979383        2132.6295316912       u       B3u (3)
  150   163          78.3726979383        2132.6295316912       u       B1u (5)
  151    73          78.3799460250        2132.8267621581      Au       B2u (2)
  152    32          80.3451510679        2186.3027100387       g        Ag (1)
  153   211          80.3451510679        2186.3027100387       g       B2g (7)
  154   189          80.3869932205        2187.4412928972       g       B3g (6)
  155   133          80.3869932205        2187.4412928972       g       B1g (4)
  156    33          80.4010120973        2187.8227659284      Ag        Ag (1)
  157   164         110.1886479730        2998.3855463221       u       B1u (5)
  158   108         110.1886479731        2998.3855463245       u       B3u (3)
  159    74         110.2346382289        2999.6370048069      Au       B2u (2)
  160    34         111.9221034744        3045.5552685775      Ag        Ag (1)
  161    35         122.9060570077        3344.4438394180       g        Ag (1)
  162   212         122.9060570077        3344.4438394180       g       B2g (7)
  163   190         122.9332908687        3345.1849104524       g       B3g (6)
  164   134         122.9332908687        3345.1849104524       g       B1g (4)
  165   213         122.9527696897        3345.7149561177       g       B2g (7)
  166    36         122.9527696897        3345.7149561177       g        Ag (1)
  167   135         122.9644674287        3346.0332677805       g       B1g (4)
  168   191         122.9644674287        3346.0332677805       g       B3g (6)
  169    37         122.9683684183        3346.1394191040      Ag        Ag (1)
  170    38         197.4043853012        5371.6464132726       g        Ag (1)
  171   214         197.4043853012        5371.6464132726       g       B2g (7)
  172   136         197.4312974162        5372.3787291518       g       B1g (4)
  173   192         197.4312974162        5372.3787291518       g       B3g (6)
  174    39         197.4402895642        5372.6234179382      Ag        Ag (1)
  175   109         230.6375908680        6275.9679115601       u       B3u (3)
  176   165         230.6375908680        6275.9679115601       u       B1u (5)
  177   228         230.6579906055        6276.5230166392       u        Au (8)
  178    75         230.6579906055        6276.5230166392       u       B2u (2)
  179   110         230.6702404786        6276.8563526336       u       B3u (3)
  180   166         230.6702404786        6276.8563526336       u       B1u (5)
  181    76         230.6743254403        6276.9675100923      Au       B2u (2)
  182    40         256.1246264543        6969.5054086295      Ag        Ag (1)
  183   111         264.5218101851        7198.0043946090       u       B3u (3)
  184   167         264.5218101855        7198.0043946184       u       B1u (5)
  185    77         264.5508269136        7198.7939799335      Au       B2u (2)
  186   168         385.9045537027       10500.9967666110       u       B1u (5)
  187   112         385.9045537027       10500.9967666111       u       B3u (3)
  188   229         385.9182165726       10501.3685522021                Au (8)
  189    78         385.9182165726       10501.3685522021               B2u (2)
  190   169         385.9288479710       10501.6578472588       u       B3u (5)
  191   113         385.9288479710       10501.6578472588       u       B1u (3)
  192   230         385.9364443565       10501.8645554188       u        Au (8)
  193    79         385.9364443565       10501.8645554188       u       B2u (2)
  194   170         385.9410031997       10501.9886078490       u       B1u (5)
  195   114         385.9410031997       10501.9886078490       u       B3u (3)
  196    80         385.9425229828       10502.0299632481      Au       B2u (2)
  197   215         451.5320446606       12286.8115846445       g       B2g (7)
  198    41         451.5320446606       12286.8115846446       g        Ag (1)
  199   193         451.5441760415       12287.1416963019       g       B3g (6)
  200   137         451.5441760415       12287.1416963019       g       B1g (4)
  201   216         451.5528453456       12287.3776000591       g       B2g (7)
  202    42         451.5528453456       12287.3776000592       g        Ag (1)
  203   138         451.5580485406       12287.5191861944       g       B1g (4)
  204   194         451.5580485406       12287.5191861944       g       B3g (6)
  205    43         451.5597832077       12287.5663888859      Ag        Ag (1)
  206   217         484.3323151435       13179.3523203781       g       B2g (7)
  207    44         484.3323151435       13179.3523203783       g        Ag (1)
  208   139         484.3473628837       13179.7617902069       g       B1g (4)
  209   195         484.3473628837       13179.7617902069       g       B3g (6)
  210    45         484.3523854863       13179.8984621722      Ag        Ag (1)
  211    46         567.6308239474       15446.0199800900      Ag        Ag (1)
  212   115         632.0540382578       17199.0647645500       u       B3u (3)
  213   171         632.0540382584       17199.0647645683       u       B1u (5)
  214    81         632.0701058638       17199.5019863395      Au       B2u (2)
  215   172         688.5525751327       18736.4681129940       u       B1u (5)
  216   116         688.5525751327       18736.4681129942       u       B3u (3)
  217   231         688.5617041786       18736.7165269623       u        Au (8)
  218    82         688.5617041786       18736.7165269624       u       B2u (2)
  219   173         688.5671850732       18736.8656696850       u       B1u (5)
  220   117         688.5671850732       18736.8656696854       u       B3u (3)
  221    83         688.5690126166       18736.9153996703      Au       B2u (2)
  222    47        1222.2711602387       33259.6891600182       g        Ag (1)
  223   218        1222.2711602387       33259.6891600183       g       B2g (7)
  224   140        1222.2781111572       33259.8783041256       g       B1g (4)
  225   196        1222.2781111572       33259.8783041259       g       B3g (6)
  226    48        1222.2804298307       33259.9413984397      Ag        Ag (1)
  227    49        1269.3303948652       34540.2360359506      Ag        Ag (1)
  228   118        1546.4372828531       42080.6978077696       u       B3u (3)
  229   174        1546.4372828536       42080.6978077838       u       B1u (5)
  230    84        1546.4446960029       42080.8995298304      Au       B2u (2)
  231    50        4066.6234139194      110658.4488595763      Ag        Ag (1)


 
  ORBITAL EIGENVALUES ( BETA)  (1H = 27.2113834 eV)

       MO #        E(hartree)               E(eV)           FULLSYM    COMPSYM
       ----   --------------------   --------------------   -------   ---------
    1     1         -20.6291381665        -561.3473878600      Ag        Ag (1)
    2     2          -1.0755064762         -29.2660190718      Ag        Ag (1)
    3    51          -0.5216738413         -14.1954669048      Au       B2u (2)
  +++++++++++++++++++++++++++++++++++++++++++++++++++++++++++++++++++++++++++++
    4    85           0.0782775647           2.1300408241       u       B3u (3)
    5   141           0.0782775647           2.1300408241       u       B1u (5)
    6     3           0.1100616818           2.9949306221      Ag        Ag (1)
    7    52           0.2655255288           7.2253169656      Au       B2u (2)
    8   142           0.3282423641           8.9319288164       u       B1u (5)
    9    86           0.3282423641           8.9319288164       u       B3u (3)
   10     4           0.6047406773          16.4558304275      Ag        Ag (1)
   11     5           0.8284908121          22.5443811317      Ag        Ag (1)
   12   175           0.8292485976          22.5650015239       g       B3g (6)
   13   119           0.8292485976          22.5650015239       g       B1g (4)
   14   197           0.8340122166          22.6946261866       g       B2g (7)
   15     6           0.8340122166          22.6946261866       g        Ag (1)
   16    53           1.0495475235          28.5596400586      Au       B2u (2)
   17    87           1.1064019815          30.1067285121       u       B3u (3)
   18   143           1.1064019815          30.1067285121       u       B1u (5)
   19    88           1.8407674604          50.0898291151       u       B3u (3)
   20   144           1.8407674604          50.0898291151       u       B1u (5)
   21   219           1.8500965373          50.3436862044       u        Au (8)
   22    54           1.8500965373          50.3436862044       u       B2u (2)
   23   145           1.8556773577          50.4955480473       u       B1u (5)
   24    89           1.8556773577          50.4955480473       u       B3u (3)
   25    55           1.8575243173          50.5458063730      Au       B2u (2)
   26     7           2.0890461253          56.8458350548      Ag        Ag (1)
   27     8           2.4016564609          65.3523947515      Ag        Ag (1)
   28   176           2.4052872189          65.4511926996       g       B3g (6)
   29   120           2.4052872189          65.4511926996       g       B1g (4)
   30     9           2.4203236733          65.8603554255       g        Ag (1)
   31   198           2.4203236733          65.8603554255       g       B2g (7)
   32    56           2.9378408526          79.9427138091      Au       B2u (2)
   33   146           2.9684112411          80.7745763699       u       B1u (5)
   34    90           2.9684112411          80.7745763699       u       B3u (3)
   35    10           4.5214301821         123.0343702021       g        Ag (1)
   36   199           4.5214301821         123.0343702021       g       B2g (7)
   37   177           4.5368366875         123.4536025263       g       B3g (6)
   38   121           4.5368366875         123.4536025263       g       B1g (4)
   39   200           4.5478384214         123.7529749266       g       B2g (7)
   40    11           4.5478384214         123.7529749266       g        Ag (1)
   41   178           4.5544324137         123.9324065797       g       B3g (6)
   42   122           4.5544324137         123.9324065797       g       B1g (4)
   43    12           4.5566288024         123.9921733536      Ag        Ag (1)
   44    91           5.0422187523         137.2057476545       u       B3u (3)
   45   147           5.0422187523         137.2057476545       u       B1u (5)
   46   220           5.0566192415         137.5976048894       u        Au (8)
   47    57           5.0566192415         137.5976048894       u       B2u (2)
   48   148           5.0651885330         137.8307871651       u       B1u (5)
   49    92           5.0651885330         137.8307871651       u       B3u (3)
   50    58           5.0680337842         137.9082103851      Au       B2u (2)
   51    13           5.8552304007         159.3289193285      Ag        Ag (1)
   52   179           5.8560309298         159.3507028320       g       B3g (6)
   53   123           5.8560309298         159.3507028320       g       B1g (4)
   54   201           5.8576283929         159.3941720142       g       B2g (7)
   55    14           5.8576283929         159.3941720142       g        Ag (1)
   56    15           6.1452570541         167.2209457907      Ag        Ag (1)
   57   149           7.3764434631         200.7232312018       u       B1u (5)
   58    93           7.3764434631         200.7232312018       u       B3u (3)
   59    59           7.3794446945         200.8048988598      Au       B2u (2)
   60    94           9.0583513333         246.4902711019       u       B3u (3)
   61   150           9.0583513333         246.4902711019       u       B1u (5)
   62    60           9.0773012686         247.0059250585               B2u (2)
   63   221           9.0773012686         247.0059250585                Au (8)
   64    95           9.0921108204         247.4089134496       u       B3u (3)
   65   151           9.0921108204         247.4089134496       u       B1u (5)
   66    61           9.1027269338         247.6977925802       u       B2u (2)
   67   222           9.1027269338         247.6977925802       u        Au (8)
   68    96           9.1091117345         247.8715318404       u       B3u (3)
   69   152           9.1091117345         247.8715318404       u       B1u (5)
   70    62           9.1112425218         247.9295135118      Au       B2u (2)
   71    97          11.8866459696         323.4520808190       u       B3u (3)
   72   153          11.8866459696         323.4520808190       u       B1u (5)
   73    63          11.9092608817         324.0674638632       u       B2u (2)
   74   223          11.9092608817         324.0674638632       u        Au (8)
   75   154          11.9228350440         324.4368355974       u       B1u (5)
   76    98          11.9228350440         324.4368355974       u       B3u (3)
   77    64          11.9273609591         324.5599920091      Au       B2u (2)
   78   202          12.3259182339         335.4052868185       g       B2g (7)
   79    16          12.3259182339         335.4052868185       g        Ag (1)
   80   124          12.3496204629         336.0502572605       g       B1g (4)
   81   180          12.3496204629         336.0502572605       g       B3g (6)
   82   203          12.3665504258         336.5109449708       g       B2g (7)
   83    17          12.3665504258         336.5109449708       g        Ag (1)
   84   125          12.3767062529         336.7872990758       g       B1g (4)
   85   181          12.3767062529         336.7872990759       g       B3g (6)
   86    18          12.3800909925         336.8794025227      Ag        Ag (1)
   87   204          13.8011246498         375.5476941963       g       B2g (7)
   88    19          13.8011246498         375.5476941963       g        Ag (1)
   89   182          13.8198844176         376.0581734302       g       B3g (6)
   90   126          13.8198844176         376.0581734302       g       B1g (4)
   91    20          13.8262509206         376.2314147852      Ag        Ag (1)
   92    21          17.2363454205         469.0248036520      Ag        Ag (1)
   93   155          18.0807122688         492.0011936901       u       B1u (5)
   94    99          18.0807122688         492.0011936905       u       B3u (3)
   95    65          18.1094609920         492.7834862212      Au       B2u (2)
   96   205          19.8769765584         540.8800299647    XXXX      XXXX (7)
   97    22          19.8769765584         540.8800299647    XXXX      XXXX (1)
   98   183          19.8991511694         541.4834318059    XXXX      XXXX (6)
   99   127          19.8991511694         541.4834318059    XXXX      XXXX (4)
  100   206          19.9173739435         541.9792986984       g       B2g (7)
  101    23          19.9173739435         541.9792986985       g        Ag (1)
  102   184          19.9315972516         542.3663345873       g       B3g (6)
  103   128          19.9315972516         542.3663345873       g       B1g (4)
  104   207          19.9417836972         542.6435218633       g       B2g (7)
  105    24          19.9417836972         542.6435218633       g        Ag (1)
  106   185          19.9479063786         542.8101284961       g       B3g (6)
  107   129          19.9479063786         542.8101284961       g       B1g (4)
  108    25          19.9499490786         542.8657131892      Ag        Ag (1)
  109   156          25.7953607654         701.9274517273       u       B1u (5)
  110   100          25.7953607654         701.9274517273       u       B3u (3)
  111    66          25.8215143904         702.6391280446               B2u (2)
  112   224          25.8215143904         702.6391280446                Au (8)
  113   101          25.8419293185         703.1946464808       u       B3u (3)
  114   157          25.8419293185         703.1946464808       u       B1u (5)
  115    67          25.8565508195         703.5925177498       u       B2u (2)
  116   225          25.8565508195         703.5925177498       u        Au (8)
  117   102          25.8653395357         703.8316708769       u       B3u (3)
  118   158          25.8653395357         703.8316708769       u       B1u (5)
  119    68          25.8682717488         703.9114604531      Au       B2u (2)
  120   103          27.7763772303         755.8336502762       u       B3u (3)
  121   159          27.7763772303         755.8336502763       u       B1u (5)
  122    69          27.8050233530         756.6131509043       u       B2u (2)
  123   226          27.8050233530         756.6131509043       u        Au (8)
  124   104          27.8222637633         757.0822863190       u       B3u (3)
  125   160          27.8222637633         757.0822863190       u       B1u (5)
  126    70          27.8280193905         757.2389048963      Au       B2u (2)
  127   208          30.9263830727         841.5496669656       g       B2g (7)
  128    26          30.9263830727         841.5496669656       g        Ag (1)
  129   130          30.9545833536         842.3170356221       g       B1g (4)
  130   186          30.9545833536         842.3170356221       g       B3g (6)
  131   209          30.9747717845         842.8663907544       g       B2g (7)
  132    27          30.9747717845         842.8663907544       g        Ag (1)
  133   131          30.9869029123         843.1964955240       g       B1g (4)
  134   187          30.9869029123         843.1964955240       g       B3g (6)
  135    28          30.9909496277         843.3066122485      Ag        Ag (1)
  136   210          32.8462848121         893.7928492872       g       B2g (7)
  137    29          32.8462848121         893.7928492872       g        Ag (1)
  138   188          32.8764912751         894.6148089339       g       B3g (6)
  139   132          32.8764912751         894.6148089339       g       B1g (4)
  140    30          32.8866577084         894.8914516475      Ag        Ag (1)
  141   161          44.8452859419        1220.3022694489       u       B1u (5)
  142   105          44.8452859420        1220.3022694516       u       B3u (3)
[...]
                  3104
                     6                     5                     8
  list                   415                     0                     0
                  3392
                     7                     8                     8
  list                   415                     0                     0
                  2846
                     8                     7                     8
  list                   415                     0                     0
                  3125
 G(Ab,Ij)
  G(Ab,Ij) a,b,i,j
                     1                     2                     8
  list                   416                 33440                     5
                  6688
                     2                     1                     8
  list                   416                 29032                     4
                  7258
                     3                     4                     8
  list                   416                 12324                     2
                  6162
                     4                     3                     8
  list                   416                  6714                     1
                  6714
                     5                     6                     8
  list                   416                 12324                     2
                  6162
                     6                     5                     8
  list                   416                  6714                     1
                  6714
                     7                     8                     8
  list                   416                     0                     0
                  5648
                     8                     7                     8
  list                   416                     0                     0
                  6182
 G(aJ,iB)
  G(aJ,iB) a,j,i,b
                     1                     2                     8
  list                   417                 22230                   195
                   114
                     2                     1                     8
  list                   417                 20382                   158
                   129
                     3                     4                     8
  list                   417                 12324                   158
                    78
                     4                     3                     8
  list                   417                 11070                   123
                    90
                     5                     6                     8
  list                   417                 12324                   158
                    78
                     6                     5                     8
  list                   417                 11070                   123
                    90
                     7                     8                     8
  list                   417                  5904                   123
                    48
                     8                     7                     8
  list                   417                  5244                    92
                    57
 G(Aj,Ib)
  G(Aj,Ib) a,j,i,b
                     1                     2                     8
  list                   418                 20382                   129
                   158
                     2                     1                     8
  list                   418                 22230                   114
                   195
                     3                     4                     8
  list                   418                 11070                    90
                   123
                     4                     3                     8
  list                   418                 12324                    78
                   158
                     5                     6                     8
  list                   418                 11070                    90
                   123
                     6                     5                     8
  list                   418                 12324                    78
                   158
                     7                     8                     8
  list                   418                  5244                    57
                    92
                     8                     7                     8
  list                   418                  5904                    48
                   123
 G(AI,BJ)
  G(AI,BJ) a,i,b,j
                     1                     2                     8
  list                   423                 30810                   195
                   158
                     2                     1                     8
  list                   423                 30810                   158
                   195
                     3                     4                     8
  list                   423                 19434                   158
                   123
                     4                     3                     8
  list                   423                 19434                   123
                   158
                     5                     6                     8
  list                   423                 19434                   158
                   123
                     6                     5                     8
  list                   423                 19434                   123
                   158
                     7                     8                     8
  list                   423                 11316                   123
                    92
                     8                     7                     8
  list                   423                 11316                    92
                   123
 G(ai,bj)
  G(ai,bj) a,i,b,j
                     1                     2                     8
  list                   424                 14706                   129
                   114
                     2                     1                     8
  list                   424                 14706                   114
                   129
                     3                     4                     8
  list                   424                  7020                    90
                    78
                     4                     3                     8
  list                   424                  7020                    78
                    90
                     5                     6                     8
  list                   424                  7020                    90
                    78
                     6                     5                     8
  list                   424                  7020                    78
                    90
                     7                     8                     8
  list                   424                  2736                    57
                    48
                     8                     7                     8
  list                   424                  2736                    48
                    57
 G(Ai,Bj)
  G(Ai,Bj) a,i,b,j
                     1                     2                     8
  list                   425                 14706                   129
                   114
                     2                     1                     8
  list                   425                 14706                   114
                   129
                     3                     4                     8
  list                   425                  6776                    88
                    77
                     4                     3                     8
  list                   425                  6776                    77
                    88
                     5                     6                     8
  list                   425                  6776                    88
                    77
                     6                     5                     8
  list                   425                  6776                    77
                    88
                     7                     8                     8
  list                   425                  2736                    57
                    48
                     8                     7                     8
  list                   425                  2736                    48
                    57
 G(aI,bJ)
  G(aI,bJ) a,i,b,j
                     1                     2                     8
  list                   426                 31126                   197
                   158
                     2                     1                     8
  list                   426                 31126                   158
                   197
                     3                     4                     8
  list                   426                 19840                   160
                   124
                     4                     3                     8
  list                   426                 19840                   124
                   160
                     5                     6                     8
  list                   426                 19840                   160
                   124
                     6                     5                     8
  list                   426                 19840                   124
                   160
                     7                     8                     8
  list                   426                 11500                   125
                    92
                     8                     7                     8
  list                   426                 11500                    92
                   125
 G(AB,CI)
  G(AB,CI) a,b,c,i
                     1                     2                     8
  list                   427                647790                   195
                  3322
                     2                     1                     8
  list                   427                550314                   158
                  3483
                     3                     4                     8
  list                   427                483164                   158
                  3058
                     4                     3                     8
  list                   427                408606                   123
                  3322
                     5                     6                     8
  list                   427                483164                   158
                  3058
                     6                     5                     8
  list                   427                408606                   123
                  3322
                     7                     8                     8
  list                   427                344646                   123
                  2802
                     8                     7                     8
  list                   427                281336                    92
                  3058
 G(ab,ci)
  G(ab,ci) a,b,c,i
                     1                     2                     8
  list                   428                434214                   129
                  3366
                     2                     1                     8
  list                   428                404586                   114
                  3549
                     3                     4                     8
  list                   428                279360                    90
                  3104
                     4                     3                     8
  list                   428                264576                    78
                  3392
                     5                     6                     8
  list                   428                279360                    90
                  3104
                     6                     5                     8
  list                   428                264576                    78
                  3392
                     7                     8                     8
  list                   428                162222                    57
                  2846
                     8                     7                     8
  list                   428                150000                    48
                  3125
 G(Ab,Ic)
  G(Ab,Ic) a,b,c,i
                     1                     2                     8
  list                   429               1317536                   197
                  6688
                     2                     1                     8
  list                   429               1146764                   158
                  7258
                     3                     4                     8
  list                   429                985920                   160
                  6162
                     4                     3                     8
  list                   429                832536                   124
                  6714
                     5                     6                     8
  list                   429                985920                   160
                  6162
                     6                     5                     8
  list                   429                832536                   124
                  6714
                     7                     8                     8
  list                   429                706000                   125
                  5648
                     8                     7                     8
  list                   429                568744                    92
                  6182
 G(Ab,Ci)
  G(Ab,Ci) a,b,c,i
                     1                     2                     8
  list                   430                862752                   129
                  6688
                     2                     1                     8
  list                   430                827412                   114
                  7258
                     3                     4                     8
  list                   430                542256                    88
                  6162
                     4                     3                     8
  list                   430                516978                    77
                  6714
                     5                     6                     8
  list                   430                542256                    88
                  6162
                     6                     5                     8
  list                   430                516978                    77
                  6714
                     7                     8                     8
  list                   430                321936                    57
                  5648
                     8                     7                     8
  list                   430                296736                    48
                  6182
 G(AB,CD)
  G(AB,CD) a,b,c,d
                     1                     2                     8
  list                   431              11570526                  3483
                  3322
                     2                     1                     8
  list                   431              11570526                  3322
                  3483
                     3                     4                     8
  list                   431              10158676                  3322
                  3058
                     4                     3                     8
  list                   431              10158676                  3058
                  3322
                     5                     6                     8
  list                   431              10158676                  3322
                  3058
                     6                     5                     8
  list                   431              10158676                  3058
                  3322
                     7                     8                     8
  list                   431               8568516                  3058
                  2802
                     8                     7                     8
  list                   431               8568516                  2802
                  3058
 G(ab,cd)
  G(ab,cd) a,b,c,d
                     1                     2                     8
  list                   432              11945934                  3549
                  3366
                     2                     1                     8
  list                   432              11945934                  3366
                  3549
                     3                     4                     8
  list                   432              10528768                  3392
                  3104
                     4                     3                     8
  list                   432              10528768                  3104
                  3392
                     5                     6                     8
  list                   432              10528768                  3392
                  3104
                     6                     5                     8
  list                   432              10528768                  3104
                  3392
                     7                     8                     8
  list                   432               8893750                  3125
                  2846
                     8                     7                     8
  list                   432               8893750                  2846
                  3125
 G(Ab,Cd)
  G(Ab,Cd) a,b,c,d
                     1                     2                     8
  list                   433              48541504                  7258
                  6688
                     2                     1                     8
  list                   433              48541504                  6688
                  7258
                     3                     4                     8
  list                   433              41371668                  6714
                  6162
                     4                     3                     8
  list                   433              41371668                  6162
                  6714
                     5                     6                     8
  list                   433              41371668                  6714
                  6162
                     6                     5                     8
  list                   433              41371668                  6162
                  6714
                     7                     8                     8
  list                   433              34915936                  6182
                  5648
                     8                     7                     8
  list                   433              34915936                  5648
                  6182
 D(I,J)  
 D(i,j)  
 PITERM.tmp does not exsit!
 skip reading
 Calculation of the contributions of <pq||rs> to dI(i,j)/dx required   1.0 seconds.
 Calculation of the contributions of <pq||rs> to dI(a,b)/dx required  53.8 seconds.
 Calculation of the contributions of <pq||rs> to dI(i,a)/dx required  16.5 seconds.
  @RDDIR-F, I/O Error (IOSTAT =  31) on Unit   0.
 @CHECKOUT-I, Total execution time (CPU/WALL):      181.53/     133.02 seconds.
 
  ERROR ERROR ERROR ERROR ERROR ERROR 
  Job has terminated with error flag 
  ERROR ERROR ERROR ERROR ERROR ERROR 
 
--executable xsdcc finished with status     1 in      133.64 seconds (walltime).
  This computation required                        25292.06 seconds (walltime).
Program finished with exit code 0 at: Wed 27 Aug 2025 01:46:08 PM EDT
