#INFO: **** input file is /lustre09/project/6004934/jaafar1/PySCF-MRCC/Fluorine/neutral/dawCV4Z/UHF/input.py ****
import pyscf
from pyscf import cc, lib, tools, scf, symm, ao2mo
from pyscf.gto.basis import parse_gaussian
from pyscf.scf import atom_hf

name = 'out'
mol = pyscf.M(
    atom = '''
        F
    ''',
    unit = 'angstrom',
    basis = {
            'F' : parse_gaussian.load('F-d-aug-cc-pwCVQZ.gbs', 'F')
    },
    charge = 0,
    spin = 1,
    symmetry = True,
    verbose = 9,
    symmetry_subgroup = 'D2h',
    output = name +'.txt',
    max_memory = 32000,
)

original_AtomSphAverageRHF = atom_hf.AtomSphAverageRHF

class CustomAtomSphAverageRHF(original_AtomSphAverageRHF):
    def __init__(self, mol):
        super().__init__(mol)
        self.max_cycle = 9999
        self.direct_scf = False

atom_hf.AtomSphAverageRHF = CustomAtomSphAverageRHF

mf = mol.UHF().set(
    conv_tol=1e-13,
    max_cycle=9999,
    ddm_tol=1e-12,
    direct_scf=False,
    chkfile=name + '.chk',
    init_guess='atom',
    irrep_nelec={'Ag': 4, 'B3u': 2, 'B2u': 2, 'B1u': 1}
)

mf.kernel()

atom_hf.AtomSphAverageRHF = original_AtomSphAverageRHF

#pyscf.tools.fcidump.from_chkfile_uhf('FCIdump',name+'.chk',tol=1e-18, float_format='% 0.20E',molpro_orbsym=False,orbsym=None)
pyscf.tools.fcidump.from_scf_uhf(mf,'fort.55',tol=1e-18, float_format='% 0.20E',molpro_orbsym=False)
#MRCCInterface.run_mrcc(mf, fort_file='fort.55', mrcc_input_file='MINP', tol=1e-18, float_format='% 0.20E', molpro_orbsym=False)
#INFO: ******************** input file end ********************


System: uname_result(system='Linux', node='rc32419', release='5.14.0-687.15.1.el9_8.x86_64', version='#1 SMP PREEMPT_DYNAMIC Thu Jun 11 08:51:45 EDT 2026', machine='x86_64')  Threads 4
Python 3.13.2 (main, Feb  5 2025, 15:06:39) [GCC 13.3.0]
numpy 2.2.2  scipy 1.15.1  h5py 3.13.0
Date: Thu Jun 18 22:22:34 2026
PySCF version 2.10.0
PySCF path  /home/jaafar1/links/projects/rrg-tzeng/jaafar1/VENV/MRCCInterface/lib/python3.13/site-packages/pyscf

[CONFIG] ARGPARSE = False
[CONFIG] DEBUG = False
[CONFIG] MAX_MEMORY = 4000
[CONFIG] TMPDIR = /tmp
[CONFIG] UNIT = angstrom
[CONFIG] VERBOSE = 3
[CONFIG] conf_file = None
[INPUT] verbose = 9
[INPUT] max_memory = 32000 
[INPUT] num. atoms = 1
[INPUT] num. electrons = 9
[INPUT] charge = 0
[INPUT] spin (= nelec alpha-beta = 2S) = 1
[INPUT] symmetry True subgroup D2h
[INPUT] Mole.unit = angstrom
[INPUT] Symbol           X                Y                Z      unit          X                Y                Z       unit  Magmom
[INPUT]  1 F      0.000000000000   0.000000000000   0.000000000000 AA    0.000000000000   0.000000000000   0.000000000000 Bohr   0.0
[INPUT] ---------------- BASIS SET ---------------- 
[INPUT] l, kappa, [nprim/nctr], expnt,             c_1 c_2 ...
[INPUT] F
[INPUT] 0    0    [1    /1   ]  88.88                1
[INPUT] 0    0    [1    /1   ]  34.581               1
[INPUT] 0    0    [12   /2   ]  74530             9.5e-05 -2.2e-05
                                11170             0.000738 -0.000172
                                2543              0.003858 -0.000891
                                721               0.015926 -0.003748
                                235.9             0.054289 -0.012862
                                85.6              0.149513 -0.038061
                                33.55             0.308252 -0.086239
                                13.93             0.394853 -0.155865
                                5.915             0.211031 -0.110914
                                1.843             0.017151 0.298761
                                0.7124            -0.002015 0.585013
                                0.2637            0.000869 0.271159
[INPUT] 0    0    [1    /1   ]  13.454               1
[INPUT] 0    0    [1    /1   ]  1.843                1
[INPUT] 0    0    [1    /1   ]  0.7124               1
[INPUT] 0    0    [1    /1   ]  0.2637               1
[INPUT] 0    0    [1    /1   ]  0.08594              1
[INPUT] 0    0    [1    /1   ]  0.028                1
[INPUT] 1    0    [1    /1   ]  117.339              1
[INPUT] 1    0    [1    /1   ]  40.862               1
[INPUT] 1    0    [1    /1   ]  14.23                1
[INPUT] 1    0    [1    /1   ]  1.953                1
[INPUT] 1    0    [6    /1   ]  80.39             0.006347
                                18.63             0.044204
                                5.694             0.168514
                                1.953             0.361563
                                0.6702            0.442178
                                0.2166            0.243435
[INPUT] 1    0    [1    /1   ]  0.6702               1
[INPUT] 1    0    [1    /1   ]  0.2166               1
[INPUT] 1    0    [1    /1   ]  0.06568              1
[INPUT] 1    0    [1    /1   ]  0.0199               1
[INPUT] 2    0    [1    /1   ]  49.61                1
[INPUT] 2    0    [1    /1   ]  15                   1
[INPUT] 2    0    [1    /1   ]  5.014                1
[INPUT] 2    0    [1    /1   ]  1.725                1
[INPUT] 2    0    [1    /1   ]  0.586                1
[INPUT] 2    0    [1    /1   ]  0.207                1
[INPUT] 2    0    [1    /1   ]  0.0731               1
[INPUT] 3    0    [1    /1   ]  16.168               1
[INPUT] 3    0    [1    /1   ]  3.562                1
[INPUT] 3    0    [1    /1   ]  1.148                1
[INPUT] 3    0    [1    /1   ]  0.46                 1
[INPUT] 3    0    [1    /1   ]  0.184                1
[INPUT] 4    0    [1    /1   ]  2.376                1
[INPUT] 4    0    [1    /1   ]  0.924                1
[INPUT] 4    0    [1    /1   ]  0.359                1

nuclear repulsion = 0
point group symmetry = SO3, use subgroup D2h
symmetry origin: [0. 0. 0.]
symmetry axis x: [1. 0. 0.]
symmetry axis y: [0. 1. 0.]
symmetry axis z: [0. 0. 1.]
num. orbitals of irrep Ag = 33
num. orbitals of irrep B1g = 13
num. orbitals of irrep B2g = 13
num. orbitals of irrep B3g = 13
num. orbitals of irrep Au = 5
num. orbitals of irrep B1u = 19
num. orbitals of irrep B2u = 19
num. orbitals of irrep B3u = 19
number of shells = 33
number of NR pGTOs = 159
number of NR cGTOs = 134
basis = {'F': [[0, [88.88, 1.0]], [0, [34.581, 1.0]], [0, [74530.0, 9.5e-05, -2.2e-05], [11170.0, 0.000738, -0.000172], [2543.0, 0.003858, -0.000891], [721.0, 0.015926, -0.003748], [235.9, 0.054289, -0.012862], [85.6, 0.149513, -0.038061], [33.55, 0.308252, -0.086239], [13.93, 0.394853, -0.155865], [5.915, 0.211031, -0.110914], [1.843, 0.017151, 0.298761], [0.7124, -0.002015, 0.585013], [0.2637, 0.000869, 0.271159]], [0, [13.454, 1.0]], [0, [1.843, 1.0]], [0, [0.7124, 1.0]], [0, [0.2637, 1.0]], [0, [0.08594, 1.0]], [0, [0.028, 1.0]], [1, [117.339, 1.0]], [1, [40.862, 1.0]], [1, [14.23, 1.0]], [1, [1.953, 1.0]], [1, [80.39, 0.006347], [18.63, 0.044204], [5.694, 0.168514], [1.953, 0.361563], [0.6702, 0.442178], [0.2166, 0.243435]], [1, [0.6702, 1.0]], [1, [0.2166, 1.0]], [1, [0.06568, 1.0]], [1, [0.0199, 1.0]], [2, [49.61, 1.0]], [2, [15.0, 1.0]], [2, [5.014, 1.0]], [2, [1.725, 1.0]], [2, [0.586, 1.0]], [2, [0.207, 1.0]], [2, [0.0731, 1.0]], [3, [16.168, 1.0]], [3, [3.562, 1.0]], [3, [1.148, 1.0]], [3, [0.46, 1.0]], [3, [0.184, 1.0]], [4, [2.376, 1.0]], [4, [0.924, 1.0]], [4, [0.359, 1.0]]]}
ecp = {}
bas 0, expnt(s) = [88.88]
bas 1, expnt(s) = [34.581]
bas 2, expnt(s) = [7.453e+04 1.117e+04 2.543e+03 7.210e+02 2.359e+02 8.560e+01 3.355e+01
 1.393e+01 5.915e+00 1.843e+00 7.124e-01 2.637e-01]
bas 3, expnt(s) = [13.454]
bas 4, expnt(s) = [1.843]
bas 5, expnt(s) = [0.7124]
bas 6, expnt(s) = [0.2637]
bas 7, expnt(s) = [0.08594]
bas 8, expnt(s) = [0.028]
bas 9, expnt(s) = [117.339]
bas 10, expnt(s) = [40.862]
bas 11, expnt(s) = [14.23]
bas 12, expnt(s) = [1.953]
bas 13, expnt(s) = [80.39   18.63    5.694   1.953   0.6702  0.2166]
bas 14, expnt(s) = [0.6702]
bas 15, expnt(s) = [0.2166]
bas 16, expnt(s) = [0.06568]
bas 17, expnt(s) = [0.0199]
bas 18, expnt(s) = [49.61]
bas 19, expnt(s) = [15.]
bas 20, expnt(s) = [5.014]
bas 21, expnt(s) = [1.725]
bas 22, expnt(s) = [0.586]
bas 23, expnt(s) = [0.207]
bas 24, expnt(s) = [0.0731]
bas 25, expnt(s) = [16.168]
bas 26, expnt(s) = [3.562]
bas 27, expnt(s) = [1.148]
bas 28, expnt(s) = [0.46]
bas 29, expnt(s) = [0.184]
bas 30, expnt(s) = [2.376]
bas 31, expnt(s) = [0.924]
bas 32, expnt(s) = [0.359]
CPU time:         1.81
arg.atm = [[ 9 20  1 23  0  0]]
arg.bas = [[  0   0   1   1   0  24  25   0]
 [  0   0   1   1   0  26  27   0]
 [  0   0  12   2   0  28  40   0]
 [  0   0   1   1   0  64  65   0]
 [  0   0   1   1   0  66  67   0]
 [  0   0   1   1   0  68  69   0]
 [  0   0   1   1   0  70  71   0]
 [  0   0   1   1   0  72  73   0]
 [  0   0   1   1   0  74  75   0]
 [  0   1   1   1   0  76  77   0]
 [  0   1   1   1   0  78  79   0]
 [  0   1   1   1   0  80  81   0]
 [  0   1   1   1   0  82  83   0]
 [  0   1   6   1   0  84  90   0]
 [  0   1   1   1   0  96  97   0]
 [  0   1   1   1   0  98  99   0]
 [  0   1   1   1   0 100 101   0]
 [  0   1   1   1   0 102 103   0]
 [  0   2   1   1   0 104 105   0]
 [  0   2   1   1   0 106 107   0]
 [  0   2   1   1   0 108 109   0]
 [  0   2   1   1   0 110 111   0]
 [  0   2   1   1   0 112 113   0]
 [  0   2   1   1   0 114 115   0]
 [  0   2   1   1   0 116 117   0]
 [  0   3   1   1   0 118 119   0]
 [  0   3   1   1   0 120 121   0]
 [  0   3   1   1   0 122 123   0]
 [  0   3   1   1   0 124 125   0]
 [  0   3   1   1   0 126 127   0]
 [  0   4   1   1   0 128 129   0]
 [  0   4   1   1   0 130 131   0]
 [  0   4   1   1   0 132 133   0]]
arg.env = [ 0.00000000e+00  0.00000000e+00  0.00000000e+00  0.00000000e+00
  0.00000000e+00  0.00000000e+00  0.00000000e+00  0.00000000e+00
  0.00000000e+00  0.00000000e+00  0.00000000e+00  0.00000000e+00
  0.00000000e+00  0.00000000e+00  0.00000000e+00  0.00000000e+00
  0.00000000e+00  0.00000000e+00  0.00000000e+00  0.00000000e+00
  0.00000000e+00  0.00000000e+00  0.00000000e+00  0.00000000e+00
  8.88800000e+01  7.31337863e+01  3.45810000e+01  3.60282515e+01
  7.45300000e+04  1.11700000e+04  2.54300000e+03  7.21000000e+02
  2.35900000e+02  8.56000000e+01  3.35500000e+01  1.39300000e+01
  5.91500000e+00  1.84300000e+00  7.12400000e-01  2.63700000e-01
  1.08264842e+00  2.02587078e+00  3.49049879e+00  5.59852547e+00
  8.25606866e+00  1.06304042e+01  1.08565240e+01  7.19306985e+00
  2.02221728e+00  6.85407649e-02 -3.94760311e-03  8.07919094e-04
 -2.50718237e-01 -4.72153519e-01 -8.06124978e-01 -1.31754645e+00
 -1.95600232e+00 -2.70614100e+00 -3.03730223e+00 -2.83940175e+00
 -1.06283864e+00  1.19394084e+00  1.14610222e+00  2.52099233e-01
  1.34540000e+01  1.77481705e+01  1.84300000e+00  3.99630867e+00
  7.12400000e-01  1.95910610e+00  2.63700000e-01  9.29710255e-01
  8.59400000e-02  4.01015848e-01  2.80000000e-02  1.72935259e-01
  1.17339000e+02  1.12664572e+03  4.08620000e+01  3.01393524e+02
  1.42300000e+01  8.06288597e+01  1.95300000e+00  6.73538145e+00
  8.03900000e+01  1.86300000e+01  5.69400000e+00  1.95300000e+00
  6.70200000e-01  2.16600000e-01  4.45713103e+00  4.99128084e+00
  4.32406470e+00  2.43526459e+00  7.82234612e-01  1.04939853e-01
  6.70200000e-01  1.76904924e+00  2.16600000e-01  4.31079587e-01
  6.56800000e-02  9.70009132e-02  1.99000000e-02  2.18047312e-02
  4.96100000e+01  2.41977805e+03  1.50000000e+01  2.98324615e+02
  5.01400000e+00  4.38381242e+01  1.72500000e+00  6.77501576e+00
  5.86000000e-01  1.02411851e+00  2.07000000e-01  1.65759142e-01
  7.31000000e-02  2.68154319e-02  1.61680000e+01  1.03392024e+03
  3.56200000e+00  3.43812507e+01  1.14800000e+00  2.69078879e+00
  4.60000000e-01  3.43728453e-01  1.84000000e-01  4.37371483e-02
  2.37600000e+00  1.42068175e+01  9.24000000e-01  1.05807639e+00
  3.59000000e-01  7.86011384e-02]
ecpbas  = []


******** <class 'pyscf.scf.uhf_symm.SymAdaptedUHF'> ********
method = SymAdaptedUHF
initial guess = atom
damping factor = 0
level_shift factor = 0
DIIS = <class 'pyscf.scf.diis.CDIIS'>
diis_start_cycle = 1
diis_space = 8
diis_damp = 0
SCF conv_tol = 1e-13
SCF conv_tol_grad = None
SCF ddm_tol = 1e-12
SCF max_cycles = 9999
direct_scf = False
chkfile to save SCF result = out.chk
max_memory 32000 MB (current use 123 MB)
number electrons alpha = 5  beta = 4
irrep_nelec {'Ag': 4, 'B3u': 2, 'B2u': 2, 'B1u': 1}
Freeze 9 electrons in irreps ['Ag', 'B3u', 'B2u', 'B1u']
    0 free electrons in irreps B1g B2g B3g Au
cond(S) = 142958.01972856538

WARN: Singularity detected in overlap matrix (condition number = 1.43e+05). SCF may be inaccurate and hard to converge.

Set gradient conv threshold to 3.16228e-07
Spherically averaged atomic HF for {'F'}


******** <class '__main__.CustomAtomSphAverageRHF'> ********
method = CustomAtomSphAverageRHF
initial guess = minao
damping factor = 0
level_shift factor = 0
DIIS = <class 'pyscf.scf.diis.CDIIS'>
diis_start_cycle = 1
diis_space = 8
diis_damp = 0
SCF conv_tol = 1e-09
SCF conv_tol_grad = None
SCF ddm_tol = 1e-10
SCF max_cycles = 9999
direct_scf = False
chkfile to save SCF result = /tmp/tmpsy493qo2
max_memory 32000 MB (current use 124 MB)
atom = F
Set gradient conv threshold to 3.16228e-05
Initial guess from minao.
Nelec from initial guess = 8.999889217046212
E1 = -139.0483640033929  E_coul = 39.98914875724624
init E= -99.0592152461466
l = 0  e_0 = -26.4090881
l = 0  e_1 = -1.59662037
l = 0  e_2 = 0.0446920968
l = 0  e_3 = 0.27308458
l = 0  e_4 = 1.21175665
l = 0  e_5 = 4.75220015
l = 0  e_6 = 18.2766285
l = 0  e_7 = 63.6965396
l = 0  e_8 = 206.792801
l = 0  e_9 = 840.950679
l = 1  e_0 = -0.612922542
l = 1  e_1 = 0.046852304
l = 1  e_2 = 0.222356775
l = 1  e_3 = 0.904081314
l = 1  e_4 = 3.33635227
l = 1  e_5 = 11.2726492
l = 1  e_6 = 35.6841883
l = 1  e_7 = 113.638856
l = 1  e_8 = 367.971169
l = 2  e_0 = 0.232876065
l = 2  e_1 = 0.781506138
l = 2  e_2 = 2.11396728
l = 2  e_3 = 5.70882615
l = 2  e_4 = 16.4642742
l = 2  e_5 = 51.4048728
l = 2  e_6 = 179.071156
l = 3  e_0 = 0.756808304
l = 3  e_1 = 2.24531865
l = 3  e_2 = 5.7075127
l = 3  e_3 = 15.8558637
l = 3  e_4 = 65.3463617
l = 4  e_0 = 1.85151399
l = 4  e_1 = 5.34488902
l = 4  e_2 = 13.9590209
    CPU time for initialize scf      1.61 sec, wall time      0.52 sec
l = 0  e_0 = -26.4090881
l = 0  e_1 = -1.59662037
l = 0  e_2 = 0.0446920968
l = 0  e_3 = 0.27308458
l = 0  e_4 = 1.21175665
l = 0  e_5 = 4.75220015
l = 0  e_6 = 18.2766285
l = 0  e_7 = 63.6965396
l = 0  e_8 = 206.792801
l = 0  e_9 = 840.950679
l = 1  e_0 = -0.612922542
l = 1  e_1 = 0.046852304
l = 1  e_2 = 0.222356775
l = 1  e_3 = 0.904081314
l = 1  e_4 = 3.33635227
l = 1  e_5 = 11.2726492
l = 1  e_6 = 35.6841883
l = 1  e_7 = 113.638856
l = 1  e_8 = 367.971169
l = 2  e_0 = 0.232876065
l = 2  e_1 = 0.781506138
l = 2  e_2 = 2.11396728
l = 2  e_3 = 5.70882615
l = 2  e_4 = 16.4642742
l = 2  e_5 = 51.4048728
l = 2  e_6 = 179.071156
l = 3  e_0 = 0.756808304
l = 3  e_1 = 2.24531865
l = 3  e_2 = 5.7075127
l = 3  e_3 = 15.8558637
l = 3  e_4 = 65.3463617
l = 4  e_0 = 1.85151399
l = 4  e_1 = 5.34488902
l = 4  e_2 = 13.9590209
l = 0  occ = 2 + 0
l = 1  occ = 0 + 1.667
l = 2  occ = 0 + 0
l = 3  occ = 0 + 0
E1 = -138.72958770436617  E_coul = 39.66488263174412
cycle= 1 E= -99.064705072622  delta_E= -0.00549  |g|=    0  |ddm|= 0.218
    CPU time for cycle= 1      0.18 sec, wall time      0.05 sec
diis-norm(errvec)=0.0708613
diis-c [-0.00502133  1.        ]
l = 0  e_0 = -26.4955502
l = 0  e_1 = -1.62102491
l = 0  e_2 = 0.0449075778
l = 0  e_3 = 0.272492864
l = 0  e_4 = 1.20599473
l = 0  e_5 = 4.73189847
l = 0  e_6 = 18.2287537
l = 0  e_7 = 63.6229888
l = 0  e_8 = 206.699404
l = 0  e_9 = 840.834295
l = 1  e_0 = -0.633435147
l = 1  e_1 = 0.0468586748
l = 1  e_2 = 0.221959497
l = 1  e_3 = 0.899818186
l = 1  e_4 = 3.3187069
l = 1  e_5 = 11.2320451
l = 1  e_6 = 35.6193652
l = 1  e_7 = 113.553865
l = 1  e_8 = 367.868595
l = 2  e_0 = 0.233239822
l = 2  e_1 = 0.781405062
l = 2  e_2 = 2.10826461
l = 2  e_3 = 5.69005063
l = 2  e_4 = 16.4223215
l = 2  e_5 = 51.3369078
l = 2  e_6 = 178.98223
l = 3  e_0 = 0.757472787
l = 3  e_1 = 2.24523929
l = 3  e_2 = 5.69943329
l = 3  e_3 = 15.8241164
l = 3  e_4 = 65.2767808
l = 4  e_0 = 1.85252839
l = 4  e_1 = 5.34310456
l = 4  e_2 = 13.9412102
l = 0  occ = 2 + 0
l = 1  occ = 0 + 1.667
l = 2  occ = 0 + 0
l = 3  occ = 0 + 0
E1 = -138.9299736549111  E_coul = 39.864977851163374
cycle= 2 E= -99.0649958037477  delta_E= -0.000291  |g|=    0  |ddm|= 0.0298
    CPU time for cycle= 2      0.19 sec, wall time      0.05 sec
diis-norm(errvec)=0.0349375
diis-c [-1.15842081e-04  3.21834790e-01  6.78165210e-01]
l = 0  e_0 = -26.4650499
l = 0  e_1 = -1.60998162
l = 0  e_2 = 0.0450930392
l = 0  e_3 = 0.27346982
l = 0  e_4 = 1.20956413
l = 0  e_5 = 4.74206457
l = 0  e_6 = 18.248685
l = 0  e_7 = 63.6503012
l = 0  e_8 = 206.730969
l = 0  e_9 = 840.868418
l = 1  e_0 = -0.622895179
l = 1  e_1 = 0.0468911959
l = 1  e_2 = 0.222465119
l = 1  e_3 = 0.903009453
l = 1  e_4 = 3.32829432
l = 1  e_5 = 11.2498317
l = 1  e_6 = 35.644307
l = 1  e_7 = 113.583817
l = 1  e_8 = 367.90154
l = 2  e_0 = 0.23337821
l = 2  e_1 = 0.782660909
l = 2  e_2 = 2.11286667
l = 2  e_3 = 5.70062039
l = 2  e_4 = 16.4410574
l = 2  e_5 = 51.3631795
l = 2  e_6 = 179.013359
l = 3  e_0 = 0.757777824
l = 3  e_1 = 2.24716216
l = 3  e_2 = 5.70597413
l = 3  e_3 = 15.8397406
l = 3  e_4 = 65.3036926
l = 4  e_0 = 1.85321555
l = 4  e_1 = 5.34673453
l = 4  e_2 = 13.9520714
l = 0  occ = 2 + 0
l = 1  occ = 0 + 1.667
l = 2  occ = 0 + 0
l = 3  occ = 0 + 0
E1 = -138.8634508403366  E_coul = 39.798375422398536
cycle= 3 E= -99.0650754179381  delta_E= -7.96e-05  |g|=    0  |ddm|= 0.0117
    CPU time for cycle= 3      0.19 sec, wall time      0.05 sec
diis-norm(errvec)=0.00193669
diis-c [-9.99732093e-07 -5.12270131e-02 -6.72516333e-02  1.11847865e+00]
l = 0  e_0 = -26.4654686
l = 0  e_1 = -1.60998482
l = 0  e_2 = 0.045137007
l = 0  e_3 = 0.273573278
l = 0  e_4 = 1.20968816
l = 0  e_5 = 4.74221835
l = 0  e_6 = 18.2486135
l = 0  e_7 = 63.6499917
l = 0  e_8 = 206.730615
l = 0  e_9 = 840.868173
l = 1  e_0 = -0.62268574
l = 1  e_1 = 0.0468955677
l = 1  e_2 = 0.222518273
l = 1  e_3 = 0.90320628
l = 1  e_4 = 3.32855142
l = 1  e_5 = 11.2498988
l = 1  e_6 = 35.6440845
l = 1  e_7 = 113.583435
l = 1  e_8 = 367.901204
l = 2  e_0 = 0.233424781
l = 2  e_1 = 0.782828987
l = 2  e_2 = 2.11312977
l = 2  e_3 = 5.70090506
l = 2  e_4 = 16.4410961
l = 2  e_5 = 51.3628927
l = 2  e_6 = 179.012949
l = 3  e_0 = 0.757869353
l = 3  e_1 = 2.24742406
l = 3  e_2 = 5.7063432
l = 3  e_3 = 15.8399122
l = 3  e_4 = 65.303364
l = 4  e_0 = 1.85338612
l = 4  e_1 = 5.34711374
l = 4  e_2 = 13.9524103
l = 0  occ = 2 + 0
l = 1  occ = 0 + 1.667
l = 2  occ = 0 + 0
l = 3  occ = 0 + 0
E1 = -138.86606396089206  E_coul = 39.80098778200171
cycle= 4 E= -99.0650761788904  delta_E= -7.61e-07  |g|=    0  |ddm|= 0.000793
    CPU time for cycle= 4      0.19 sec, wall time      0.05 sec
diis-norm(errvec)=0.000131316
diis-c [-8.21626564e-10  1.30160195e-03 -4.54580339e-04 -9.74038946e-02
  1.09655687e+00]
l = 0  e_0 = -26.4654281
l = 0  e_1 = -1.60996553
l = 0  e_2 = 0.0451405527
l = 0  e_3 = 0.273581523
l = 0  e_4 = 1.20970085
l = 0  e_5 = 4.74224643
l = 0  e_6 = 18.2486494
l = 0  e_7 = 63.6500303
l = 0  e_8 = 206.730661
l = 0  e_9 = 840.868236
l = 1  e_0 = -0.622650592
l = 1  e_1 = 0.046895829
l = 1  e_2 = 0.222522593
l = 1  e_3 = 0.903225005
l = 1  e_4 = 3.32858528
l = 1  e_5 = 11.2499386
l = 1  e_6 = 35.6441234
l = 1  e_7 = 113.583476
l = 1  e_8 = 367.901255
l = 2  e_0 = 0.2334285
l = 2  e_1 = 0.782841868
l = 2  e_2 = 2.11315413
l = 2  e_3 = 5.70094252
l = 2  e_4 = 16.4411361
l = 2  e_5 = 51.3629309
l = 2  e_6 = 179.012989
l = 3  e_0 = 0.757876401
l = 3  e_1 = 2.24744395
l = 3  e_2 = 5.70637699
l = 3  e_3 = 15.8399527
l = 3  e_4 = 65.3034017
l = 4  e_0 = 1.85339904
l = 4  e_1 = 5.34714327
l = 4  e_2 = 13.9524498
l = 0  occ = 2 + 0
l = 1  occ = 0 + 1.667
l = 2  occ = 0 + 0
l = 3  occ = 0 + 0
E1 = -138.86612142392494  E_coul = 39.80104524017955
cycle= 5 E= -99.0650761837454  delta_E= -4.86e-09  |g|=    0  |ddm|= 6.82e-05
    CPU time for cycle= 5      0.20 sec, wall time      0.05 sec
diis-norm(errvec)=3.68612e-06
diis-c [-1.95274759e-12 -7.97491241e-05  4.60252588e-05  8.47988992e-03
 -1.08601864e-01  1.10015570e+00]
l = 0  e_0 = -26.4654267
l = 0  e_1 = -1.60996488
l = 0  e_2 = 0.045140628
l = 0  e_3 = 0.273581646
l = 0  e_4 = 1.20970111
l = 0  e_5 = 4.7422471
l = 0  e_6 = 18.2486505
l = 0  e_7 = 63.6500316
l = 0  e_8 = 206.730662
l = 0  e_9 = 840.868237
l = 1  e_0 = -0.622650063
l = 1  e_1 = 0.046895839
l = 1  e_2 = 0.222522691
l = 1  e_3 = 0.903225272
l = 1  e_4 = 3.32858576
l = 1  e_5 = 11.2499395
l = 1  e_6 = 35.6441246
l = 1  e_7 = 113.583477
l = 1  e_8 = 367.901256
l = 2  e_0 = 0.233428576
l = 2  e_1 = 0.782842006
l = 2  e_2 = 2.11315445
l = 2  e_3 = 5.7009431
l = 2  e_4 = 16.441137
l = 2  e_5 = 51.3629322
l = 2  e_6 = 179.012991
l = 3  e_0 = 0.757876527
l = 3  e_1 = 2.24744417
l = 3  e_2 = 5.70637736
l = 3  e_3 = 15.8399535
l = 3  e_4 = 65.3034031
l = 4  e_0 = 1.85339924
l = 4  e_1 = 5.34714355
l = 4  e_2 = 13.9524503
l = 0  occ = 2 + 0
l = 1  occ = 0 + 1.667
l = 2  occ = 0 + 0
l = 3  occ = 0 + 0
E1 = -138.86611896747198  E_coul = 39.80104278372404
cycle= 6 E= -99.0650761837479  delta_E= -2.54e-12  |g|=    0  |ddm|= 4.35e-06
    CPU time for cycle= 6      0.19 sec, wall time      0.05 sec
diis-norm(errvec)=2.16182e-07
diis-c [-1.31518439e-14  6.35785491e-06 -4.12907651e-06 -7.17890392e-04
  9.75532108e-03 -1.34079785e-01  1.12504013e+00]
l = 0  e_0 = -26.4654267
l = 0  e_1 = -1.60996484
l = 0  e_2 = 0.0451406319
l = 0  e_3 = 0.273581654
l = 0  e_4 = 1.20970113
l = 0  e_5 = 4.74224712
l = 0  e_6 = 18.2486505
l = 0  e_7 = 63.6500316
l = 0  e_8 = 206.730662
l = 0  e_9 = 840.868237
l = 1  e_0 = -0.622650068
l = 1  e_1 = 0.0468958392
l = 1  e_2 = 0.222522694
l = 1  e_3 = 0.903225279
l = 1  e_4 = 3.32858576
l = 1  e_5 = 11.2499395
l = 1  e_6 = 35.6441247
l = 1  e_7 = 113.583477
l = 1  e_8 = 367.901256
l = 2  e_0 = 0.233428579
l = 2  e_1 = 0.782842015
l = 2  e_2 = 2.11315446
l = 2  e_3 = 5.70094311
l = 2  e_4 = 16.441137
l = 2  e_5 = 51.3629322
l = 2  e_6 = 179.012991
l = 3  e_0 = 0.757876533
l = 3  e_1 = 2.24744418
l = 3  e_2 = 5.70637738
l = 3  e_3 = 15.8399535
l = 3  e_4 = 65.3034031
l = 4  e_0 = 1.85339925
l = 4  e_1 = 5.34714356
l = 4  e_2 = 13.9524503
l = 0  occ = 2 + 0
l = 1  occ = 0 + 1.667
l = 2  occ = 0 + 0
l = 3  occ = 0 + 0
E1 = -138.86611910141167  E_coul = 39.80104291766391
cycle= 7 E= -99.0650761837478  delta_E= 1.71e-13  |g|=    0  |ddm|= 1.13e-07
    CPU time for cycle= 7      0.19 sec, wall time      0.05 sec
diis-norm(errvec)=4.50693e-08
Linear dependence found in DIIS error vectors.
diis-c [-3.70164424e-15  3.42328288e-06 -2.70806104e-06 -3.78938689e-04
  5.12399522e-03 -6.75242014e-02  4.97897970e-01  5.64880460e-01]
l = 0  e_0 = -26.4654267
l = 0  e_1 = -1.60996483
l = 0  e_2 = 0.0451406323
l = 0  e_3 = 0.273581656
l = 0  e_4 = 1.20970113
l = 0  e_5 = 4.74224713
l = 0  e_6 = 18.2486505
l = 0  e_7 = 63.6500316
l = 0  e_8 = 206.730662
l = 0  e_9 = 840.868237
l = 1  e_0 = -0.622650061
l = 1  e_1 = 0.0468958393
l = 1  e_2 = 0.222522694
l = 1  e_3 = 0.903225281
l = 1  e_4 = 3.32858577
l = 1  e_5 = 11.2499395
l = 1  e_6 = 35.6441247
l = 1  e_7 = 113.583477
l = 1  e_8 = 367.901256
l = 2  e_0 = 0.23342858
l = 2  e_1 = 0.782842016
l = 2  e_2 = 2.11315446
l = 2  e_3 = 5.70094312
l = 2  e_4 = 16.441137
l = 2  e_5 = 51.3629322
l = 2  e_6 = 179.012991
l = 3  e_0 = 0.757876533
l = 3  e_1 = 2.24744418
l = 3  e_2 = 5.70637738
l = 3  e_3 = 15.8399535
l = 3  e_4 = 65.3034031
l = 4  e_0 = 1.85339925
l = 4  e_1 = 5.34714357
l = 4  e_2 = 13.9524503
l = 0  occ = 2 + 0
l = 1  occ = 0 + 1.667
l = 2  occ = 0 + 0
l = 3  occ = 0 + 0
E1 = -138.86611907750964  E_coul = 39.80104289376162
cycle= 8 E= -99.065076183748  delta_E= -2.56e-13  |g|=    0  |ddm|= 1.61e-08
    CPU time for cycle= 8      0.19 sec, wall time      0.05 sec
diis-norm(errvec)=2.32169e-08
Linear dependence found in DIIS error vectors.
diis-c [-1.69940401e-15  2.38008573e-06 -2.01670389e-06 -2.61375428e-04
  3.52764607e-03 -4.56862354e-02  3.17746136e-01  3.61251018e-01
  3.63422448e-01]
l = 0  e_0 = -26.4654267
l = 0  e_1 = -1.60996483
l = 0  e_2 = 0.0451406324
l = 0  e_3 = 0.273581656
l = 0  e_4 = 1.20970114
l = 0  e_5 = 4.74224713
l = 0  e_6 = 18.2486505
l = 0  e_7 = 63.6500316
l = 0  e_8 = 206.730662
l = 0  e_9 = 840.868237
l = 1  e_0 = -0.622650059
l = 1  e_1 = 0.0468958393
l = 1  e_2 = 0.222522695
l = 1  e_3 = 0.903225282
l = 1  e_4 = 3.32858577
l = 1  e_5 = 11.2499395
l = 1  e_6 = 35.6441247
l = 1  e_7 = 113.583477
l = 1  e_8 = 367.901256
l = 2  e_0 = 0.23342858
l = 2  e_1 = 0.782842017
l = 2  e_2 = 2.11315446
l = 2  e_3 = 5.70094312
l = 2  e_4 = 16.441137
l = 2  e_5 = 51.3629322
l = 2  e_6 = 179.012991
l = 3  e_0 = 0.757876534
l = 3  e_1 = 2.24744419
l = 3  e_2 = 5.70637738
l = 3  e_3 = 15.8399535
l = 3  e_4 = 65.3034031
l = 4  e_0 = 1.85339925
l = 4  e_1 = 5.34714357
l = 4  e_2 = 13.9524503
l = 0  occ = 2 + 0
l = 1  occ = 0 + 1.667
l = 2  occ = 0 + 0
l = 3  occ = 0 + 0
E1 = -138.8661190695352  E_coul = 39.801042885787275
cycle= 9 E= -99.0650761837479  delta_E= 9.95e-14  |g|=    0  |ddm|= 5.47e-09
    CPU time for cycle= 9      0.19 sec, wall time      0.05 sec
diis-norm(errvec)=1.59284e-08
Linear dependence found in DIIS error vectors.
diis-c [-2.32805310e-15  2.62868487e-01 -2.17783554e-06 -8.67712122e-05
  1.44747736e-03 -2.57020356e-02  2.37377917e-01  2.61549227e-01
  2.62547877e-01]
l = 0  e_0 = -26.4654267
l = 0  e_1 = -1.60996483
l = 0  e_2 = 0.0451406324
l = 0  e_3 = 0.273581657
l = 0  e_4 = 1.20970114
l = 0  e_5 = 4.74224713
l = 0  e_6 = 18.2486505
l = 0  e_7 = 63.6500316
l = 0  e_8 = 206.730662
l = 0  e_9 = 840.868237
l = 1  e_0 = -0.622650058
l = 1  e_1 = 0.0468958393
l = 1  e_2 = 0.222522695
l = 1  e_3 = 0.903225283
l = 1  e_4 = 3.32858577
l = 1  e_5 = 11.2499395
l = 1  e_6 = 35.6441247
l = 1  e_7 = 113.583477
l = 1  e_8 = 367.901256
l = 2  e_0 = 0.23342858
l = 2  e_1 = 0.782842017
l = 2  e_2 = 2.11315446
l = 2  e_3 = 5.70094312
l = 2  e_4 = 16.4411371
l = 2  e_5 = 51.3629323
l = 2  e_6 = 179.012991
l = 3  e_0 = 0.757876534
l = 3  e_1 = 2.24744419
l = 3  e_2 = 5.70637738
l = 3  e_3 = 15.8399535
l = 3  e_4 = 65.3034031
l = 4  e_0 = 1.85339925
l = 4  e_1 = 5.34714357
l = 4  e_2 = 13.9524503
l = 0  occ = 2 + 0
l = 1  occ = 0 + 1.667
l = 2  occ = 0 + 0
l = 3  occ = 0 + 0
E1 = -138.86611906347682  E_coul = 39.801042879729046
cycle= 10 E= -99.0650761837478  delta_E= 1.42e-13  |g|=    0  |ddm|= 1.36e-09
    CPU time for cycle= 10      0.19 sec, wall time      0.05 sec
diis-norm(errvec)=1.27414e-08
Linear dependence found in DIIS error vectors.
diis-c [-6.05783310e-17  2.90538040e-01  2.93196695e-01  2.77111693e-05
 -4.26895887e-04  7.73086905e-03 -1.11340326e-01  2.41921754e-01
  2.78352152e-01]
l = 0  e_0 = -26.4654267
l = 0  e_1 = -1.60996482
l = 0  e_2 = 0.0451406326
l = 0  e_3 = 0.273581658
l = 0  e_4 = 1.20970114
l = 0  e_5 = 4.74224713
l = 0  e_6 = 18.2486505
l = 0  e_7 = 63.6500316
l = 0  e_8 = 206.730662
l = 0  e_9 = 840.868237
l = 1  e_0 = -0.622650054
l = 1  e_1 = 0.0468958393
l = 1  e_2 = 0.222522695
l = 1  e_3 = 0.903225285
l = 1  e_4 = 3.32858578
l = 1  e_5 = 11.2499395
l = 1  e_6 = 35.6441247
l = 1  e_7 = 113.583477
l = 1  e_8 = 367.901256
l = 2  e_0 = 0.23342858
l = 2  e_1 = 0.782842018
l = 2  e_2 = 2.11315447
l = 2  e_3 = 5.70094312
l = 2  e_4 = 16.4411371
l = 2  e_5 = 51.3629323
l = 2  e_6 = 179.012991
l = 3  e_0 = 0.757876534
l = 3  e_1 = 2.24744419
l = 3  e_2 = 5.70637739
l = 3  e_3 = 15.8399535
l = 3  e_4 = 65.3034031
l = 4  e_0 = 1.85339925
l = 4  e_1 = 5.34714357
l = 4  e_2 = 13.9524503
l = 0  occ = 2 + 0
l = 1  occ = 0 + 1.667
l = 2  occ = 0 + 0
l = 3  occ = 0 + 0
E1 = -138.86611905006254  E_coul = 39.80104286631454
cycle= 11 E= -99.065076183748  delta_E= -2.27e-13  |g|=    0  |ddm|= 1.11e-08
    CPU time for cycle= 11      0.18 sec, wall time      0.05 sec
diis-norm(errvec)=1.25739e-09
Linear dependence found in DIIS error vectors.
diis-c [-1.07693130e-16  2.07586786e-01  2.06765798e-01  2.12879846e-01
  2.80285042e-05 -2.25366078e-03 -2.71595156e-02  1.97156386e-01
  2.04996332e-01]
l = 0  e_0 = -26.4654267
l = 0  e_1 = -1.60996482
l = 0  e_2 = 0.0451406326
l = 0  e_3 = 0.273581658
l = 0  e_4 = 1.20970114
l = 0  e_5 = 4.74224714
l = 0  e_6 = 18.2486505
l = 0  e_7 = 63.6500316
l = 0  e_8 = 206.730662
l = 0  e_9 = 840.868237
l = 1  e_0 = -0.622650053
l = 1  e_1 = 0.0468958393
l = 1  e_2 = 0.222522695
l = 1  e_3 = 0.903225285
l = 1  e_4 = 3.32858578
l = 1  e_5 = 11.2499395
l = 1  e_6 = 35.6441247
l = 1  e_7 = 113.583477
l = 1  e_8 = 367.901256
l = 2  e_0 = 0.23342858
l = 2  e_1 = 0.782842018
l = 2  e_2 = 2.11315447
l = 2  e_3 = 5.70094312
l = 2  e_4 = 16.4411371
l = 2  e_5 = 51.3629323
l = 2  e_6 = 179.012991
l = 3  e_0 = 0.757876534
l = 3  e_1 = 2.24744419
l = 3  e_2 = 5.70637739
l = 3  e_3 = 15.8399535
l = 3  e_4 = 65.3034031
l = 4  e_0 = 1.85339925
l = 4  e_1 = 5.34714357
l = 4  e_2 = 13.9524503
l = 0  occ = 2 + 0
l = 1  occ = 0 + 1.667
l = 2  occ = 0 + 0
l = 3  occ = 0 + 0
E1 = -138.86611904264186  E_coul = 39.8010428588941
cycle= 12 E= -99.0650761837477  delta_E= 2.56e-13  |g|=    0  |ddm|= 2.77e-09
    CPU time for cycle= 12      0.19 sec, wall time      0.05 sec
diis-norm(errvec)=4.87033e-09
Linear dependence found in DIIS error vectors.
diis-c [-8.82875508e-16  1.75213635e-01  1.74844367e-01  1.81622621e-01
  1.79763444e-01 -4.68256926e-04 -4.62267562e-02  1.63056311e-01
  1.72194636e-01]
l = 0  e_0 = -26.4654267
l = 0  e_1 = -1.60996482
l = 0  e_2 = 0.0451406327
l = 0  e_3 = 0.273581658
l = 0  e_4 = 1.20970114
l = 0  e_5 = 4.74224714
l = 0  e_6 = 18.2486505
l = 0  e_7 = 63.6500316
l = 0  e_8 = 206.730662
l = 0  e_9 = 840.868237
l = 1  e_0 = -0.622650053
l = 1  e_1 = 0.0468958393
l = 1  e_2 = 0.222522695
l = 1  e_3 = 0.903225285
l = 1  e_4 = 3.32858578
l = 1  e_5 = 11.2499395
l = 1  e_6 = 35.6441247
l = 1  e_7 = 113.583477
l = 1  e_8 = 367.901256
l = 2  e_0 = 0.23342858
l = 2  e_1 = 0.782842019
l = 2  e_2 = 2.11315447
l = 2  e_3 = 5.70094313
l = 2  e_4 = 16.4411371
l = 2  e_5 = 51.3629323
l = 2  e_6 = 179.012991
l = 3  e_0 = 0.757876534
l = 3  e_1 = 2.24744419
l = 3  e_2 = 5.70637739
l = 3  e_3 = 15.8399535
l = 3  e_4 = 65.3034031
l = 4  e_0 = 1.85339925
l = 4  e_1 = 5.34714357
l = 4  e_2 = 13.9524503
l = 0  occ = 2 + 0
l = 1  occ = 0 + 1.667
l = 2  occ = 0 + 0
l = 3  occ = 0 + 0
E1 = -138.86611904302404  E_coul = 39.801042859276215
cycle= 13 E= -99.0650761837478  delta_E= -8.53e-14  |g|=    0  |ddm|= 1.28e-09
    CPU time for cycle= 13      0.19 sec, wall time      0.05 sec
diis-norm(errvec)=5.04834e-09
Linear dependence found in DIIS error vectors.
diis-c [-1.37960830e-16  1.46405847e-01  1.47332924e-01  1.55265069e-01
  1.55690595e-01  1.56249773e-01 -3.39041125e-02  1.30494720e-01
  1.42465184e-01]
l = 0  e_0 = -26.4654267
l = 0  e_1 = -1.60996482
l = 0  e_2 = 0.0451406327
l = 0  e_3 = 0.273581658
l = 0  e_4 = 1.20970114
l = 0  e_5 = 4.74224714
l = 0  e_6 = 18.2486505
l = 0  e_7 = 63.6500316
l = 0  e_8 = 206.730662
l = 0  e_9 = 840.868237
l = 1  e_0 = -0.622650053
l = 1  e_1 = 0.0468958393
l = 1  e_2 = 0.222522695
l = 1  e_3 = 0.903225285
l = 1  e_4 = 3.32858578
l = 1  e_5 = 11.2499395
l = 1  e_6 = 35.6441247
l = 1  e_7 = 113.583477
l = 1  e_8 = 367.901256
l = 2  e_0 = 0.23342858
l = 2  e_1 = 0.782842018
l = 2  e_2 = 2.11315447
l = 2  e_3 = 5.70094312
l = 2  e_4 = 16.4411371
l = 2  e_5 = 51.3629323
l = 2  e_6 = 179.012991
l = 3  e_0 = 0.757876534
l = 3  e_1 = 2.24744419
l = 3  e_2 = 5.70637739
l = 3  e_3 = 15.8399535
l = 3  e_4 = 65.3034031
l = 4  e_0 = 1.85339925
l = 4  e_1 = 5.34714357
l = 4  e_2 = 13.9524503
l = 0  occ = 2 + 0
l = 1  occ = 0 + 1.667
l = 2  occ = 0 + 0
l = 3  occ = 0 + 0
E1 = -138.86611904480125  E_coul = 39.801042861053375
cycle= 14 E= -99.0650761837479  delta_E= -4.26e-14  |g|=    0  |ddm|= 3.08e-10
    CPU time for cycle= 14      0.19 sec, wall time      0.05 sec
diis-norm(errvec)=3.90631e-09
Linear dependence found in DIIS error vectors.
diis-c [9.95255666e-17 1.25000000e-01 1.25000000e-01 1.25000000e-01
 1.25000000e-01 1.25000000e-01 1.25000000e-01 1.25000000e-01
 1.25000000e-01]
l = 0  e_0 = -26.4654267
l = 0  e_1 = -1.60996482
l = 0  e_2 = 0.0451406326
l = 0  e_3 = 0.273581658
l = 0  e_4 = 1.20970114
l = 0  e_5 = 4.74224713
l = 0  e_6 = 18.2486505
l = 0  e_7 = 63.6500316
l = 0  e_8 = 206.730662
l = 0  e_9 = 840.868237
l = 1  e_0 = -0.622650053
l = 1  e_1 = 0.0468958393
l = 1  e_2 = 0.222522695
l = 1  e_3 = 0.903225285
l = 1  e_4 = 3.32858578
l = 1  e_5 = 11.2499395
l = 1  e_6 = 35.6441247
l = 1  e_7 = 113.583477
l = 1  e_8 = 367.901256
l = 2  e_0 = 0.23342858
l = 2  e_1 = 0.782842018
l = 2  e_2 = 2.11315447
l = 2  e_3 = 5.70094312
l = 2  e_4 = 16.4411371
l = 2  e_5 = 51.3629323
l = 2  e_6 = 179.012991
l = 3  e_0 = 0.757876534
l = 3  e_1 = 2.24744419
l = 3  e_2 = 5.70637739
l = 3  e_3 = 15.8399535
l = 3  e_4 = 65.3034031
l = 4  e_0 = 1.85339925
l = 4  e_1 = 5.34714357
l = 4  e_2 = 13.9524503
l = 0  occ = 2 + 0
l = 1  occ = 0 + 1.667
l = 2  occ = 0 + 0
l = 3  occ = 0 + 0
E1 = -138.86611904562474  E_coul = 39.80104286187701
cycle= 15 E= -99.0650761837477  delta_E= 1.42e-13  |g|=    0  |ddm|= 9.64e-10
    CPU time for cycle= 15      0.19 sec, wall time      0.05 sec
diis-norm(errvec)=3.20215e-09
Linear dependence found in DIIS error vectors.
diis-c [-3.91945375e-16  1.25000000e-01  1.25000000e-01  1.25000000e-01
  1.25000000e-01  1.25000000e-01  1.25000000e-01  1.25000000e-01
  1.25000000e-01]
l = 0  e_0 = -26.4654267
l = 0  e_1 = -1.60996482
l = 0  e_2 = 0.0451406326
l = 0  e_3 = 0.273581658
l = 0  e_4 = 1.20970114
l = 0  e_5 = 4.74224713
l = 0  e_6 = 18.2486505
l = 0  e_7 = 63.6500316
l = 0  e_8 = 206.730662
l = 0  e_9 = 840.868237
l = 1  e_0 = -0.622650054
l = 1  e_1 = 0.0468958393
l = 1  e_2 = 0.222522695
l = 1  e_3 = 0.903225284
l = 1  e_4 = 3.32858578
l = 1  e_5 = 11.2499395
l = 1  e_6 = 35.6441247
l = 1  e_7 = 113.583477
l = 1  e_8 = 367.901256
l = 2  e_0 = 0.23342858
l = 2  e_1 = 0.782842018
l = 2  e_2 = 2.11315447
l = 2  e_3 = 5.70094312
l = 2  e_4 = 16.4411371
l = 2  e_5 = 51.3629323
l = 2  e_6 = 179.012991
l = 3  e_0 = 0.757876534
l = 3  e_1 = 2.24744419
l = 3  e_2 = 5.70637739
l = 3  e_3 = 15.8399535
l = 3  e_4 = 65.3034031
l = 4  e_0 = 1.85339925
l = 4  e_1 = 5.34714357
l = 4  e_2 = 13.9524503
l = 0  occ = 2 + 0
l = 1  occ = 0 + 1.667
l = 2  occ = 0 + 0
l = 3  occ = 0 + 0
E1 = -138.86611905003912  E_coul = 39.80104286629125
cycle= 16 E= -99.0650761837479  delta_E= -1.28e-13  |g|=    0  |ddm|= 8.87e-10
    CPU time for cycle= 16      0.19 sec, wall time      0.05 sec
diis-norm(errvec)=1.20821e-09
Linear dependence found in DIIS error vectors.
diis-c [-2.89052492e-16  1.25000000e-01  1.25000000e-01  1.25000000e-01
  1.25000000e-01  1.25000000e-01  1.25000000e-01  1.25000000e-01
  1.25000000e-01]
l = 0  e_0 = -26.4654267
l = 0  e_1 = -1.60996482
l = 0  e_2 = 0.0451406326
l = 0  e_3 = 0.273581658
l = 0  e_4 = 1.20970114
l = 0  e_5 = 4.74224713
l = 0  e_6 = 18.2486505
l = 0  e_7 = 63.6500316
l = 0  e_8 = 206.730662
l = 0  e_9 = 840.868237
l = 1  e_0 = -0.622650054
l = 1  e_1 = 0.0468958393
l = 1  e_2 = 0.222522695
l = 1  e_3 = 0.903225284
l = 1  e_4 = 3.32858578
l = 1  e_5 = 11.2499395
l = 1  e_6 = 35.6441247
l = 1  e_7 = 113.583477
l = 1  e_8 = 367.901256
l = 2  e_0 = 0.23342858
l = 2  e_1 = 0.782842018
l = 2  e_2 = 2.11315447
l = 2  e_3 = 5.70094312
l = 2  e_4 = 16.4411371
l = 2  e_5 = 51.3629323
l = 2  e_6 = 179.012991
l = 3  e_0 = 0.757876534
l = 3  e_1 = 2.24744419
l = 3  e_2 = 5.70637739
l = 3  e_3 = 15.8399535
l = 3  e_4 = 65.3034031
l = 4  e_0 = 1.85339925
l = 4  e_1 = 5.34714357
l = 4  e_2 = 13.9524503
l = 0  occ = 2 + 0
l = 1  occ = 0 + 1.667
l = 2  occ = 0 + 0
l = 3  occ = 0 + 0
E1 = -138.86611905222964  E_coul = 39.80104286848166
cycle= 17 E= -99.065076183748  delta_E= -1.14e-13  |g|=    0  |ddm|= 4.43e-10
    CPU time for cycle= 17      0.19 sec, wall time      0.05 sec
diis-norm(errvec)=6.4115e-10
Linear dependence found in DIIS error vectors.
diis-c [-2.89052492e-16  1.25000000e-01  1.25000000e-01  1.25000000e-01
  1.25000000e-01  1.25000000e-01  1.25000000e-01  1.25000000e-01
  1.25000000e-01]
l = 0  e_0 = -26.4654267
l = 0  e_1 = -1.60996482
l = 0  e_2 = 0.0451406326
l = 0  e_3 = 0.273581658
l = 0  e_4 = 1.20970114
l = 0  e_5 = 4.74224713
l = 0  e_6 = 18.2486505
l = 0  e_7 = 63.6500316
l = 0  e_8 = 206.730662
l = 0  e_9 = 840.868237
l = 1  e_0 = -0.622650054
l = 1  e_1 = 0.0468958393
l = 1  e_2 = 0.222522695
l = 1  e_3 = 0.903225284
l = 1  e_4 = 3.32858578
l = 1  e_5 = 11.2499395
l = 1  e_6 = 35.6441247
l = 1  e_7 = 113.583477
l = 1  e_8 = 367.901256
l = 2  e_0 = 0.23342858
l = 2  e_1 = 0.782842018
l = 2  e_2 = 2.11315447
l = 2  e_3 = 5.70094312
l = 2  e_4 = 16.4411371
l = 2  e_5 = 51.3629323
l = 2  e_6 = 179.012991
l = 3  e_0 = 0.757876534
l = 3  e_1 = 2.24744419
l = 3  e_2 = 5.70637739
l = 3  e_3 = 15.8399535
l = 3  e_4 = 65.3034031
l = 4  e_0 = 1.85339925
l = 4  e_1 = 5.34714357
l = 4  e_2 = 13.9524503
l = 0  occ = 2 + 0
l = 1  occ = 0 + 1.667
l = 2  occ = 0 + 0
l = 3  occ = 0 + 0
E1 = -138.86611905363506  E_coul = 39.80104286988712
cycle= 18 E= -99.0650761837479  delta_E= 2.84e-14  |g|=    0  |ddm|= 2.88e-10
    CPU time for cycle= 18      0.19 sec, wall time      0.05 sec
diis-norm(errvec)=9.34188e-10
Linear dependence found in DIIS error vectors.
diis-c [-2.89052492e-16  1.25000000e-01  1.25000000e-01  1.25000000e-01
  1.25000000e-01  1.25000000e-01  1.25000000e-01  1.25000000e-01
  1.25000000e-01]
l = 0  e_0 = -26.4654267
l = 0  e_1 = -1.60996482
l = 0  e_2 = 0.0451406326
l = 0  e_3 = 0.273581658
l = 0  e_4 = 1.20970114
l = 0  e_5 = 4.74224713
l = 0  e_6 = 18.2486505
l = 0  e_7 = 63.6500316
l = 0  e_8 = 206.730662
l = 0  e_9 = 840.868237
l = 1  e_0 = -0.622650054
l = 1  e_1 = 0.0468958393
l = 1  e_2 = 0.222522695
l = 1  e_3 = 0.903225284
l = 1  e_4 = 3.32858578
l = 1  e_5 = 11.2499395
l = 1  e_6 = 35.6441247
l = 1  e_7 = 113.583477
l = 1  e_8 = 367.901256
l = 2  e_0 = 0.23342858
l = 2  e_1 = 0.782842018
l = 2  e_2 = 2.11315447
l = 2  e_3 = 5.70094312
l = 2  e_4 = 16.4411371
l = 2  e_5 = 51.3629323
l = 2  e_6 = 179.012991
l = 3  e_0 = 0.757876534
l = 3  e_1 = 2.24744419
l = 3  e_2 = 5.70637739
l = 3  e_3 = 15.8399535
l = 3  e_4 = 65.3034031
l = 4  e_0 = 1.85339925
l = 4  e_1 = 5.34714357
l = 4  e_2 = 13.9524503
l = 0  occ = 2 + 0
l = 1  occ = 0 + 1.667
l = 2  occ = 0 + 0
l = 3  occ = 0 + 0
E1 = -138.86611905454018  E_coul = 39.801042870792266
cycle= 19 E= -99.0650761837479  delta_E= 2.84e-14  |g|=    0  |ddm|= 2.25e-10
    CPU time for cycle= 19      0.19 sec, wall time      0.05 sec
diis-norm(errvec)=1.23975e-09
Linear dependence found in DIIS error vectors.
diis-c [-2.89052492e-16  1.25000000e-01  1.25000000e-01  1.25000000e-01
  1.25000000e-01  1.25000000e-01  1.25000000e-01  1.25000000e-01
  1.25000000e-01]
l = 0  e_0 = -26.4654267
l = 0  e_1 = -1.60996482
l = 0  e_2 = 0.0451406326
l = 0  e_3 = 0.273581658
l = 0  e_4 = 1.20970114
l = 0  e_5 = 4.74224713
l = 0  e_6 = 18.2486505
l = 0  e_7 = 63.6500316
l = 0  e_8 = 206.730662
l = 0  e_9 = 840.868237
l = 1  e_0 = -0.622650054
l = 1  e_1 = 0.0468958393
l = 1  e_2 = 0.222522695
l = 1  e_3 = 0.903225284
l = 1  e_4 = 3.32858578
l = 1  e_5 = 11.2499395
l = 1  e_6 = 35.6441247
l = 1  e_7 = 113.583477
l = 1  e_8 = 367.901256
l = 2  e_0 = 0.23342858
l = 2  e_1 = 0.782842018
l = 2  e_2 = 2.11315447
l = 2  e_3 = 5.70094312
l = 2  e_4 = 16.4411371
l = 2  e_5 = 51.3629323
l = 2  e_6 = 179.012991
l = 3  e_0 = 0.757876534
l = 3  e_1 = 2.24744419
l = 3  e_2 = 5.70637739
l = 3  e_3 = 15.8399535
l = 3  e_4 = 65.3034031
l = 4  e_0 = 1.85339925
l = 4  e_1 = 5.34714357
l = 4  e_2 = 13.9524503
l = 0  occ = 2 + 0
l = 1  occ = 0 + 1.667
l = 2  occ = 0 + 0
l = 3  occ = 0 + 0
E1 = -138.8661190542458  E_coul = 39.80104287049792
cycle= 20 E= -99.0650761837479  delta_E= 5.68e-14  |g|=    0  |ddm|= 5.09e-11
    CPU time for cycle= 20      0.19 sec, wall time      0.05 sec
l = 0  e_0 = -26.4654267
l = 0  e_1 = -1.60996482
l = 0  e_2 = 0.0451406326
l = 0  e_3 = 0.273581658
l = 0  e_4 = 1.20970114
l = 0  e_5 = 4.74224713
l = 0  e_6 = 18.2486505
l = 0  e_7 = 63.6500316
l = 0  e_8 = 206.730662
l = 0  e_9 = 840.868237
l = 1  e_0 = -0.622650054
l = 1  e_1 = 0.0468958393
l = 1  e_2 = 0.222522695
l = 1  e_3 = 0.903225284
l = 1  e_4 = 3.32858578
l = 1  e_5 = 11.2499395
l = 1  e_6 = 35.6441247
l = 1  e_7 = 113.583477
l = 1  e_8 = 367.901256
l = 2  e_0 = 0.23342858
l = 2  e_1 = 0.782842018
l = 2  e_2 = 2.11315447
l = 2  e_3 = 5.70094312
l = 2  e_4 = 16.4411371
l = 2  e_5 = 51.3629323
l = 2  e_6 = 179.012991
l = 3  e_0 = 0.757876534
l = 3  e_1 = 2.24744419
l = 3  e_2 = 5.70637739
l = 3  e_3 = 15.8399535
l = 3  e_4 = 65.3034031
l = 4  e_0 = 1.85339925
l = 4  e_1 = 5.34714357
l = 4  e_2 = 13.9524503
l = 0  occ = 2 + 0
l = 1  occ = 0 + 1.667
l = 2  occ = 0 + 0
l = 3  occ = 0 + 0
E1 = -138.86611905127586  E_coul = 39.80104286752785
Extra cycle  E= -99.065076183748  delta_E= -1.42e-13  |g|=    0  |ddm|= 5.09e-11
    CPU time for scf_cycle      5.54 sec, wall time      1.51 sec
    CPU time for SCF      5.54 sec, wall time      1.52 sec
Atomic HF for atom  F  converged. SCF energy = -99.065076183748

Atom F, E = -99.0650761837
Nelec from initial guess = (np.float64(4.5000000000000036), np.float64(4.5000000000000036))
E1 = -138.86611905127586  Ecoul = 39.801042867527855
init E= -99.065076183748
    CPU time for initialize scf      7.21 sec, wall time      1.95 sec
alpha HOMO (B2u) = -0.622650054165097  LUMO (Ag) = 0.0451406326394212
alpha irrep_nelec = [2, 0, 0, 0, 0, 1, 1, 1]
beta  irrep_nelec = [2, 0, 0, 0, 0, 0, 1, 1]
alpha-Ag nocc = 2  HOMO = -1.60996482137517  LUMO = 0.0451406326394212
   mo_energy = [-2.64654267e+01 -1.60996482e+00  4.51406326e-02  2.33428580e-01
  2.33428580e-01  2.73581658e-01  7.82842018e-01  7.82842018e-01
  1.20970114e+00  1.85339925e+00  1.85339925e+00  1.85339925e+00
  2.11315447e+00  2.11315447e+00  4.74224713e+00  5.34714357e+00
  5.34714357e+00  5.34714357e+00  5.70094312e+00  5.70094312e+00
  1.39524503e+01  1.39524503e+01  1.39524503e+01  1.64411371e+01
  1.64411371e+01  1.82486505e+01  5.13629323e+01  5.13629323e+01
  6.36500316e+01  1.79012991e+02  1.79012991e+02  2.06730662e+02
  8.40868237e+02]
alpha-B1g nocc = 0
   mo_energy = [  0.23342858   0.78284202   1.85339925   1.85339925   2.11315447
   5.34714357   5.34714357   5.70094312  13.9524503   13.9524503
  16.44113706  51.36293226 179.01299061]
alpha-B2g nocc = 0
   mo_energy = [  0.23342858   0.78284202   1.85339925   1.85339925   2.11315447
   5.34714357   5.34714357   5.70094312  13.9524503   13.9524503
  16.44113706  51.36293226 179.01299061]
alpha-B3g nocc = 0
   mo_energy = [  0.23342858   0.78284202   1.85339925   1.85339925   2.11315447
   5.34714357   5.34714357   5.70094312  13.9524503   13.9524503
  16.44113706  51.36293226 179.01299061]
alpha-Au nocc = 0
   mo_energy = [ 0.75787653  2.24744419  5.70637739 15.8399535  65.30340313]
alpha-B1u nocc = 1  HOMO = -0.622650054165101  LUMO = 0.0468958393070169
   mo_energy = [-6.22650054e-01  4.68958393e-02  2.22522695e-01  7.57876534e-01
  7.57876534e-01  9.03225284e-01  2.24744419e+00  2.24744419e+00
  3.32858578e+00  5.70637739e+00  5.70637739e+00  1.12499395e+01
  1.58399535e+01  1.58399535e+01  3.56441247e+01  6.53034031e+01
  6.53034031e+01  1.13583477e+02  3.67901256e+02]
alpha-B2u nocc = 1  HOMO = -0.622650054165097  LUMO = 0.0468958393070252
   mo_energy = [-6.22650054e-01  4.68958393e-02  2.22522695e-01  7.57876534e-01
  7.57876534e-01  9.03225284e-01  2.24744419e+00  2.24744419e+00
  3.32858578e+00  5.70637739e+00  5.70637739e+00  1.12499395e+01
  1.58399535e+01  1.58399535e+01  3.56441247e+01  6.53034031e+01
  6.53034031e+01  1.13583477e+02  3.67901256e+02]
alpha-B3u nocc = 1  HOMO = -0.622650054165103  LUMO = 0.0468958393070249
   mo_energy = [-6.22650054e-01  4.68958393e-02  2.22522695e-01  7.57876534e-01
  7.57876534e-01  9.03225284e-01  2.24744419e+00  2.24744419e+00
  3.32858578e+00  5.70637739e+00  5.70637739e+00  1.12499395e+01
  1.58399535e+01  1.58399535e+01  3.56441247e+01  6.53034031e+01
  6.53034031e+01  1.13583477e+02  3.67901256e+02]
beta-Ag nocc = 2  HOMO = -1.60996482137517  LUMO = 0.0451406326394212
   mo_energy = [-2.64654267e+01 -1.60996482e+00  4.51406326e-02  2.33428580e-01
  2.33428580e-01  2.73581658e-01  7.82842018e-01  7.82842018e-01
  1.20970114e+00  1.85339925e+00  1.85339925e+00  1.85339925e+00
  2.11315447e+00  2.11315447e+00  4.74224713e+00  5.34714357e+00
  5.34714357e+00  5.34714357e+00  5.70094312e+00  5.70094312e+00
  1.39524503e+01  1.39524503e+01  1.39524503e+01  1.64411371e+01
  1.64411371e+01  1.82486505e+01  5.13629323e+01  5.13629323e+01
  6.36500316e+01  1.79012991e+02  1.79012991e+02  2.06730662e+02
  8.40868237e+02]
beta-B1g nocc = 0
   mo_energy = [  0.23342858   0.78284202   1.85339925   1.85339925   2.11315447
   5.34714357   5.34714357   5.70094312  13.9524503   13.9524503
  16.44113706  51.36293226 179.01299061]
beta-B2g nocc = 0
   mo_energy = [  0.23342858   0.78284202   1.85339925   1.85339925   2.11315447
   5.34714357   5.34714357   5.70094312  13.9524503   13.9524503
  16.44113706  51.36293226 179.01299061]
beta-B3g nocc = 0
   mo_energy = [  0.23342858   0.78284202   1.85339925   1.85339925   2.11315447
   5.34714357   5.34714357   5.70094312  13.9524503   13.9524503
  16.44113706  51.36293226 179.01299061]
beta-Au nocc = 0
   mo_energy = [ 0.75787653  2.24744419  5.70637739 15.8399535  65.30340313]
beta-B1u nocc = 0
   mo_energy = [-6.22650054e-01  4.68958393e-02  2.22522695e-01  7.57876534e-01
  7.57876534e-01  9.03225284e-01  2.24744419e+00  2.24744419e+00
  3.32858578e+00  5.70637739e+00  5.70637739e+00  1.12499395e+01
  1.58399535e+01  1.58399535e+01  3.56441247e+01  6.53034031e+01
  6.53034031e+01  1.13583477e+02  3.67901256e+02]
beta-B2u nocc = 1  HOMO = -0.622650054165097  LUMO = 0.0468958393070252
   mo_energy = [-6.22650054e-01  4.68958393e-02  2.22522695e-01  7.57876534e-01
  7.57876534e-01  9.03225284e-01  2.24744419e+00  2.24744419e+00
  3.32858578e+00  5.70637739e+00  5.70637739e+00  1.12499395e+01
  1.58399535e+01  1.58399535e+01  3.56441247e+01  6.53034031e+01
  6.53034031e+01  1.13583477e+02  3.67901256e+02]
beta-B3u nocc = 1  HOMO = -0.622650054165103  LUMO = 0.0468958393070249
   mo_energy = [-6.22650054e-01  4.68958393e-02  2.22522695e-01  7.57876534e-01
  7.57876534e-01  9.03225284e-01  2.24744419e+00  2.24744419e+00
  3.32858578e+00  5.70637739e+00  5.70637739e+00  1.12499395e+01
  1.58399535e+01  1.58399535e+01  3.56441247e+01  6.53034031e+01
  6.53034031e+01  1.13583477e+02  3.67901256e+02]
multiplicity <S^2> = 0.75  2S+1 = 2
E1 = -138.86611905283132  Ecoul = 39.462381221211956
cycle= 1 E= -99.4037378316194  delta_E= -0.339  |g|= 0.188  |ddm|= 0.802
    CPU time for cycle= 1      0.39 sec, wall time      0.13 sec
diis-norm(errvec)=0.265914
diis-c [-0.07071019  1.        ]
alpha HOMO (B2u) = -0.759231173860801  LUMO (Ag) = 0.0444857596111989
alpha irrep_nelec = [2, 0, 0, 0, 0, 1, 1, 1]
beta  irrep_nelec = [2, 0, 0, 0, 0, 0, 1, 1]
alpha-Ag nocc = 2  HOMO = -1.69927639423003  LUMO = 0.0444857596111989
   mo_energy = [-2.64857258e+01 -1.69927639e+00  4.44857596e-02  2.30688692e-01
  2.35128544e-01  2.69753324e-01  7.66812339e-01  7.86743009e-01
  1.19684904e+00  1.84436922e+00  1.84909890e+00  1.86338937e+00
  2.06507945e+00  2.11776527e+00  4.72103780e+00  5.31876578e+00
  5.33229069e+00  5.37330491e+00  5.62654443e+00  5.71271063e+00
  1.38982703e+01  1.39232390e+01  1.39987289e+01  1.63659151e+01
  1.64657583e+01  1.82316780e+01  5.13093899e+01  5.13904967e+01
  6.36417271e+01  1.78986858e+02  1.79030795e+02  2.06727797e+02
  8.40867504e+02]
alpha-B1g nocc = 0
   mo_energy = [  0.23512854   0.78674301   1.8490989    1.86338937   2.11776527
   5.33229069   5.37330491   5.71271063  13.92323902  13.99872887
  16.46575835  51.39049673 179.03079472]
alpha-B2g nocc = 0
   mo_energy = [  0.23196878   0.77183136   1.84555052   1.85503218   2.07792576
   5.32214057   5.34929683   5.64749033  13.9045037   13.95458411
  16.39103837  51.32970473 178.9978542 ]
alpha-B3g nocc = 0
   mo_energy = [  0.23196878   0.77183136   1.84555052   1.85503218   2.07792576
   5.32214057   5.34929683   5.64749033  13.9045037   13.95458411
  16.39103837  51.32970473 178.9978542 ]
alpha-Au nocc = 0
   mo_energy = [ 0.75720756  2.24233918  5.69207668 15.81953354 65.29114734]
alpha-B1u nocc = 1  HOMO = -0.85024986971252  LUMO = 0.0457798917654496
   mo_energy = [-8.50249870e-01  4.57798918e-02  2.13749106e-01  7.52639136e-01
  7.57207556e-01  8.64958944e-01  2.22759832e+00  2.24233918e+00
  3.25379113e+00  5.65998641e+00  5.69207668e+00  1.11662145e+01
  1.57713726e+01  1.58195335e+01  3.55762793e+01  6.52509561e+01
  6.52911473e+01  1.13542427e+02  3.67882484e+02]
alpha-B2u nocc = 1  HOMO = -0.759231173860801  LUMO = 0.0471164407328002
   mo_energy = [-7.59231174e-01  4.71164407e-02  2.21893056e-01  7.53825453e-01
  7.62700975e-01  8.97585574e-01  2.23128451e+00  2.26083295e+00
  3.32379121e+00  5.66797705e+00  5.73273794e+00  1.12563495e+01
  1.57833823e+01  1.58802341e+01  3.56580249e+01  6.52610004e+01
  6.53414400e+01  1.13595839e+02  3.67908243e+02]
alpha-B3u nocc = 1  HOMO = -0.759231173860811  LUMO = 0.0471164407327934
   mo_energy = [-7.59231174e-01  4.71164407e-02  2.21893056e-01  7.53825453e-01
  7.62700975e-01  8.97585574e-01  2.23128451e+00  2.26083295e+00
  3.32379121e+00  5.66797705e+00  5.73273794e+00  1.12563495e+01
  1.57833823e+01  1.58802341e+01  3.56580249e+01  6.52610004e+01
  6.53414400e+01  1.13595839e+02  3.67908243e+02]
beta-Ag nocc = 2  HOMO = -1.52345032679553  LUMO = 0.0456970566849668
   mo_energy = [-2.64452332e+01 -1.52345033e+00  4.56970567e-02  2.32316760e-01
  2.35276014e-01  2.77483021e-01  7.88238546e-01  7.89053509e-01
  1.22252111e+00  1.84801366e+00  1.85193824e+00  1.86380480e+00
  2.12678400e+00  2.14342535e+00  4.76322970e+00  5.33699722e+00
  5.34658948e+00  5.37545657e+00  5.72700249e+00  5.73878231e+00
  1.39377430e+01  1.39541176e+01  1.40033746e+01  1.64545104e+01
  1.64784457e+01  1.82662056e+01  5.13540715e+01  5.13977132e+01
  6.36584925e+01  1.79001010e+02  1.79033276e+02  2.06733564e+02
  8.40868970e+02]
beta-B1g nocc = 0
   mo_energy = [  0.23527601   0.78905351   1.85193824   1.8638048    2.126784
   5.34658948   5.37545657   5.72700249  13.95411758  14.0033746
  16.47844571  51.3977132  179.03327555]
beta-B2g nocc = 0
   mo_energy = [  0.2330763    0.78827981   1.84899334   1.85686585   2.13867611
   5.33939288   5.35860752   5.73534543  13.94183442  13.97461798
  16.46041557  51.3649927  179.00908335]
beta-B3g nocc = 0
   mo_energy = [  0.2330763    0.78827981   1.84899334   1.85686585   2.13867611
   5.33939288   5.35860752   5.73534543  13.94183442  13.97461798
  16.46041557  51.3649927  179.00908335]
beta-Au nocc = 0
   mo_energy = [ 0.7585427   2.25253434  5.7206821  15.86038664 65.3156594 ]
beta-B1u nocc = 0
   mo_energy = [3.20687140e-03 5.36729534e-02 2.51509394e-01 7.54982484e-01
 7.58542697e-01 9.68190944e-01 2.24431961e+00 2.25253434e+00
 3.39112360e+00 5.70645911e+00 5.72068210e+00 1.12714211e+01
 1.58377678e+01 1.58603866e+01 3.56327767e+01 6.52908844e+01
 6.53156594e+01 1.13564700e+02 3.67888854e+02]
beta-B2u nocc = 1  HOMO = -0.713865594284156  LUMO = 0.0472123046902017
   mo_energy = [-7.13865594e-01  4.72123047e-02  2.23459375e-01  7.55866911e-01
  7.62957307e-01  9.06554078e-01  2.24637016e+00  2.26285068e+00
  3.34209655e+00  5.71000742e+00  5.73856419e+00  1.12747097e+01
  1.58434163e+01  1.58887571e+01  3.56698649e+01  6.52970772e+01
  6.53466422e+01  1.13601052e+02  3.67909858e+02]
beta-B3u nocc = 1  HOMO = -0.713865594284148  LUMO = 0.0472123046901989
   mo_energy = [-7.13865594e-01  4.72123047e-02  2.23459375e-01  7.55866911e-01
  7.62957307e-01  9.06554078e-01  2.24637016e+00  2.26285068e+00
  3.34209655e+00  5.71000742e+00  5.73856419e+00  1.12747097e+01
  1.58434163e+01  1.58887571e+01  3.56698649e+01  6.52970772e+01
  6.53466422e+01  1.13601052e+02  3.67909858e+02]
multiplicity <S^2> = 0.75168604  2S+1 = 2.0016853
E1 = -139.36968376034116  Ecoul = 39.95676051456068
cycle= 2 E= -99.4129232457805  delta_E= -0.00919  |g|= 0.0606  |ddm|= 0.0637
    CPU time for cycle= 2      0.39 sec, wall time      0.10 sec
diis-norm(errvec)=0.0857245
diis-c [-0.00734689  0.00529397  0.99470603]
alpha HOMO (B2u) = -0.720391623542691  LUMO (Ag) = 0.0452199267645224
alpha irrep_nelec = [2, 0, 0, 0, 0, 1, 1, 1]
beta  irrep_nelec = [2, 0, 0, 0, 0, 0, 1, 1]
alpha-Ag nocc = 2  HOMO = -1.65978182163006  LUMO = 0.0452199267645224
   mo_energy = [-2.63760616e+01 -1.65978182e+00  4.52199268e-02  2.31390711e-01
  2.35558508e-01  2.73990309e-01  7.73141804e-01  7.92137003e-01
  1.21111371e+00  1.84725310e+00  1.85183115e+00  1.86566251e+00
  2.08237133e+00  2.13628134e+00  4.75885579e+00  5.33343376e+00
  5.34670082e+00  5.38697128e+00  5.66247627e+00  5.75198916e+00
  1.39394260e+01  1.39642319e+01  1.40392717e+01  1.64332367e+01
  1.65345658e+01  1.83053054e+01  5.14057569e+01  5.14869620e+01
  6.37415747e+01  1.79099295e+02  1.79143030e+02  2.06840254e+02
  8.40984308e+02]
alpha-B1g nocc = 0
   mo_energy = [  0.23555851   0.792137     1.85183115   1.86566251   2.13628134
   5.34670082   5.38697128   5.75198916  13.96423195  14.03927171
  16.53456579  51.48696197 179.1430297 ]
alpha-B2g nocc = 0
   mo_energy = [  0.23255426   0.77785858   1.84839659   1.85757371   2.0953672
   5.33674347   5.36339231   5.6840938   13.94561816  13.99538242
  16.45874074  51.42609258 179.11023846]
alpha-B3g nocc = 0
   mo_energy = [  0.23255426   0.77785858   1.84839659   1.85757371   2.0953672
   5.33674347   5.36339231   5.6840938   13.94561816  13.99538242
  16.45874074  51.42609258 179.11023846]
alpha-Au nocc = 0
   mo_energy = [ 0.75838314  2.25025502  5.71689807 15.87699577 65.39028479]
alpha-B1u nocc = 1  HOMO = -0.826507913204812  LUMO = 0.0458750111107354
   mo_energy = [-8.26507913e-01  4.58750111e-02  2.15087877e-01  7.54020654e-01
  7.58383144e-01  8.73878486e-01  2.23588634e+00  2.25025502e+00
  3.28485203e+00  5.68471133e+00  5.71689807e+00  1.12290441e+01
  1.58284871e+01  1.58769958e+01  3.56672102e+01  6.53501313e+01
  6.53902848e+01  1.13651063e+02  3.67998357e+02]
alpha-B2u nocc = 1  HOMO = -0.720391623542691  LUMO = 0.0471993182299023
   mo_energy = [-7.20391624e-01  4.71993182e-02  2.23449116e-01  7.55148549e-01
  7.63669894e-01  9.08563734e-01  2.23947744e+00  2.26833245e+00
  3.35836010e+00  5.69272295e+00  5.75773794e+00  1.13213387e+01
  1.58405820e+01  1.59381587e+01  3.57494655e+01  6.53601657e+01
  6.54405379e+01  1.13704309e+02  3.68023894e+02]
alpha-B3u nocc = 1  HOMO = -0.720391623542705  LUMO = 0.047199318229898
   mo_energy = [-7.20391624e-01  4.71993182e-02  2.23449116e-01  7.55148549e-01
  7.63669894e-01  9.08563734e-01  2.23947744e+00  2.26833245e+00
  3.35836010e+00  5.69272295e+00  5.75773794e+00  1.13213387e+01
  1.58405820e+01  1.59381587e+01  3.57494655e+01  6.53601657e+01
  6.54405379e+01  1.13704309e+02  3.68023894e+02]
beta-Ag nocc = 2  HOMO = -1.47376707674142  LUMO = 0.0461877008442312
   mo_energy = [-2.63325311e+01 -1.47376708e+00  4.61877008e-02  2.32575085e-01
  2.35511384e-01  2.81004652e-01  7.92023392e-01  7.92509188e-01
  1.23777616e+00  1.85014178e+00  1.85396272e+00  1.86550115e+00
  2.14212604e+00  2.16265524e+00  4.80522450e+00  5.35133805e+00
  5.36035369e+00  5.38744450e+00  5.76598533e+00  5.78538119e+00
  1.39822706e+01  1.39973274e+01  1.40426177e+01  1.65306862e+01
  1.65484669e+01  1.83435165e+01  5.14546085e+01  5.14950410e+01
  6.37599416e+01  1.79114662e+02  1.79145761e+02  2.06846423e+02
  8.40985779e+02]
beta-B1g nocc = 0
   mo_energy = [  0.23551138   0.79250919   1.85396272   1.86550115   2.14212604
   5.36035369   5.3874445    5.76598533  13.99732744  14.04261765
  16.54846689  51.495041   179.14576097]
beta-B2g nocc = 0
   mo_energy = [  0.23332996   0.79191697   1.85109579   1.8587569    2.15667954
   5.35359016   5.37164074   5.77984065  13.98603285  14.01617731
  16.53503007  51.46472019 179.12244133]
beta-B3g nocc = 0
   mo_energy = [  0.23332996   0.79191697   1.85109579   1.8587569    2.15667954
   5.35359016   5.37164074   5.77984065  13.98603285  14.01617731
  16.53503007  51.46472019 179.12244133]
beta-Au nocc = 0
   mo_energy = [ 0.75923778  2.25895376  5.7458957  15.92155736 65.41722171]
beta-B1u nocc = 0
   mo_energy = [2.83263018e-02 6.52076295e-02 2.63374536e-01 7.55744510e-01
 7.59237784e-01 9.90750145e-01 2.25124643e+00 2.25895376e+00
 3.43589962e+00 5.73355934e+00 5.74589570e+00 1.13447257e+01
 1.59017034e+01 1.59215574e+01 3.57293496e+01 6.53938513e+01
 6.54172217e+01 1.13675324e+02 3.68005165e+02]
beta-B2u nocc = 1  HOMO = -0.675171075871697  LUMO = 0.0472975212133173
   mo_energy = [-6.75171076e-01  4.72975212e-02  2.25035518e-01  7.56613621e-01
  7.63565561e-01  9.17772858e-01  2.25317023e+00  2.26861705e+00
  3.37740732e+00  5.73663707e+00  5.76138869e+00  1.13411048e+01
  1.59066612e+01  1.59464629e+01  3.57625085e+01  6.53996924e+01
  6.54464573e+01  1.13709990e+02  3.68025549e+02]
beta-B3u nocc = 1  HOMO = -0.675171075871721  LUMO = 0.0472975212133051
   mo_energy = [-6.75171076e-01  4.72975212e-02  2.25035518e-01  7.56613621e-01
  7.63565561e-01  9.17772858e-01  2.25317023e+00  2.26861705e+00
  3.37740732e+00  5.73663707e+00  5.76138869e+00  1.13411048e+01
  1.59066612e+01  1.59464629e+01  3.57625085e+01  6.53996924e+01
  6.54464573e+01  1.13709990e+02  3.68025549e+02]
multiplicity <S^2> = 0.75298726  2S+1 = 2.002985
E1 = -139.18423207393369  Ecoul = 39.77031841185648
cycle= 3 E= -99.4139136620772  delta_E= -0.00099  |g|= 0.0211  |ddm|= 0.0287
    CPU time for cycle= 3      0.39 sec, wall time      0.10 sec
diis-norm(errvec)=0.0297979
diis-c [-3.49954904e-04 -7.68092862e-02  1.69536062e-01  9.07273225e-01]
alpha HOMO (B2u) = -0.730027870019711  LUMO (Ag) = 0.0452055216948182
alpha irrep_nelec = [2, 0, 0, 0, 0, 1, 1, 1]
beta  irrep_nelec = [2, 0, 0, 0, 0, 0, 1, 1]
alpha-Ag nocc = 2  HOMO = -1.67099975378801  LUMO = 0.0452055216948182
   mo_energy = [-2.64074304e+01 -1.67099975e+00  4.52055217e-02  2.31389537e-01
  2.35628130e-01  2.73666701e-01  7.72916065e-01  7.91994448e-01
  1.20856732e+00  1.84708267e+00  1.85174082e+00  1.86584077e+00
  2.07881538e+00  2.13352214e+00  4.74979958e+00  5.33146263e+00
  5.34480345e+00  5.38539506e+00  5.65251780e+00  5.74284073e+00
  1.39307484e+01  1.39554049e+01  1.40301285e+01  1.64156153e+01
  1.65162506e+01  1.82861097e+01  5.13806012e+01  5.14603165e+01
  6.37143584e+01  1.79068320e+02  1.79110952e+02  2.06807906e+02
  8.40948229e+02]
alpha-B1g nocc = 0
   mo_energy = [  0.23562813   0.79199445   1.85174082   1.86584077   2.13352214
   5.34480345   5.38539506   5.74284073  13.95540493  14.03012847
  16.51625059  51.46031646 179.11095174]
alpha-B2g nocc = 0
   mo_energy = [  0.23256607   0.77761507   1.84824576   1.85758993   2.09192943
   5.33478928   5.36160997   5.67426796  13.93690121  13.98639902
  16.44090517  51.40054162 179.07898117]
alpha-B3g nocc = 0
   mo_energy = [  0.23256607   0.77761507   1.84824576   1.85758993   2.09192943
   5.33478928   5.36160997   5.67426796  13.93690121  13.98639902
  16.44090517  51.40054162 179.07898117]
alpha-Au nocc = 0
   mo_energy = [ 0.75842104  2.24962568  5.71216714 15.86262768 65.36373185]
alpha-B1u nocc = 1  HOMO = -0.842204398752323  LUMO = 0.0458239536954248
   mo_energy = [-8.42204399e-01  4.58239537e-02  2.14554769e-01  7.53969675e-01
  7.58421038e-01  8.70592659e-01  2.23511555e+00  2.24962568e+00
  3.27528763e+00  5.67984531e+00  5.71216714e+00  1.12120042e+01
  1.58144896e+01  1.58626277e+01  3.56434025e+01  6.53244235e+01
  6.53637318e+01  1.13621642e+02  3.67964660e+02]
alpha-B2u nocc = 1  HOMO = -0.730027870019711  LUMO = 0.0471946896577642
   mo_energy = [-7.30027870e-01  4.71946897e-02  2.23203502e-01  7.55121896e-01
  7.63823106e-01  9.06353430e-01  2.23873882e+00  2.26793875e+00
  3.35008175e+00  5.68788502e+00  5.75327671e+00  1.13042862e+01
  1.58264866e+01  1.59234151e+01  3.57245131e+01  6.53342442e+01
  6.54129644e+01  1.13673692e+02  3.67989503e+02]
alpha-B3u nocc = 1  HOMO = -0.730027870019712  LUMO = 0.0471946896577336
   mo_energy = [-7.30027870e-01  4.71946897e-02  2.23203502e-01  7.55121896e-01
  7.63823106e-01  9.06353430e-01  2.23873882e+00  2.26793875e+00
  3.35008175e+00  5.68788502e+00  5.75327671e+00  1.13042862e+01
  1.58264866e+01  1.59234151e+01  3.57245131e+01  6.53342442e+01
  6.54129644e+01  1.13673692e+02  3.67989503e+02]
beta-Ag nocc = 2  HOMO = -1.48002124100391  LUMO = 0.0461172407535278
   mo_energy = [-2.63622998e+01 -1.48002124e+00  4.61172408e-02  2.32470889e-01
  2.35481820e-01  2.80518563e-01  7.91231507e-01  7.91433286e-01
  1.23572951e+00  1.84974001e+00  1.85363280e+00  1.86538680e+00
  2.13817503e+00  2.15986970e+00  4.79784754e+00  5.34929620e+00
  5.35825275e+00  5.38514078e+00  5.75755293e+00  5.77818093e+00
  1.39746296e+01  1.39892638e+01  1.40332831e+01  1.65151401e+01
  1.65314505e+01  1.83259073e+01  5.14303560e+01  5.14691307e+01
  6.37335411e+01  1.79084008e+02  1.79113991e+02  2.06814467e+02
  8.40949906e+02]
beta-B1g nocc = 0
   mo_energy = [  0.23548182   0.79143329   1.8536328    1.8653868    2.13817503
   5.35825275   5.38514078   5.75755293  13.98926382  14.03328308
  16.53145046  51.46913072 179.1139911 ]
beta-B2g nocc = 0
   mo_energy = [  0.23324556   0.79106342   1.85071195   1.85851706   2.1536662
   5.3515337    5.36946181   5.77241508  13.97828619  14.00758504
  16.51913862  51.44004534 179.09150401]
beta-B3g nocc = 0
   mo_energy = [  0.23324556   0.79106342   1.85071195   1.85851706   2.1536662
   5.3515337    5.36946181   5.77241508  13.97828619  14.00758504
  16.51913862  51.44004534 179.09150401]
beta-Au nocc = 0
   mo_energy = [ 0.75910348  2.25780449  5.74137143 15.90857768 65.39148168]
beta-B1u nocc = 0
   mo_energy = [2.60659577e-02 6.30401623e-02 2.61692184e-01 7.55523858e-01
 7.59103484e-01 9.87345087e-01 2.25011601e+00 2.25780449e+00
 3.42783844e+00 5.72947469e+00 5.74137143e+00 1.13296813e+01
 1.58896185e+01 1.59085777e+01 3.57067897e+01 6.53690214e+01
 6.53914817e+01 1.13646452e+02 3.67971732e+02]
beta-B2u nocc = 1  HOMO = -0.682823639015932  LUMO = 0.0472977809882689
   mo_energy = [-6.82823639e-01  4.72977810e-02  2.24860934e-01  7.56415338e-01
  7.63533804e-01  9.15977330e-01  2.25203766e+00  2.26740633e+00
  3.37002119e+00  5.73244864e+00  5.75622718e+00  1.13251871e+01
  1.58943554e+01  1.59323232e+01  3.57384326e+01  6.53746342e+01
  6.54195907e+01  1.13679854e+02  3.67991414e+02]
beta-B3u nocc = 1  HOMO = -0.682823639015958  LUMO = 0.047297780988257
   mo_energy = [-6.82823639e-01  4.72977810e-02  2.24860934e-01  7.56415338e-01
  7.63533804e-01  9.15977330e-01  2.25203766e+00  2.26740633e+00
  3.37002119e+00  5.73244864e+00  5.75622718e+00  1.13251871e+01
  1.58943554e+01  1.59323232e+01  3.57384326e+01  6.53746342e+01
  6.54195907e+01  1.13679854e+02  3.67991414e+02]
multiplicity <S^2> = 0.75362894  2S+1 = 2.0036257
E1 = -139.24232368900505  Ecoul = 39.82823300874894
cycle= 4 E= -99.4140906802561  delta_E= -0.000177  |g|= 0.00559  |ddm|= 0.0141
    CPU time for cycle= 4      0.39 sec, wall time      0.10 sec
diis-norm(errvec)=0.00790306
diis-c [-2.78205257e-05  2.66955572e-02 -9.82738287e-02 -3.69593844e-01
  1.44117212e+00]
alpha HOMO (B3u) = -0.730865190822284  LUMO (Ag) = 0.0452273120488161
alpha irrep_nelec = [2, 0, 0, 0, 0, 1, 1, 1]
beta  irrep_nelec = [2, 0, 0, 0, 0, 0, 1, 1]
alpha-Ag nocc = 2  HOMO = -1.67224362931872  LUMO = 0.0452273120488161
   mo_energy = [-2.64075091e+01 -1.67224363e+00  4.52273120e-02  2.31396218e-01
  2.35688674e-01  2.73756588e-01  7.73183133e-01  7.92313935e-01
  1.20850589e+00  1.84706950e+00  1.85178279e+00  1.86607606e+00
  2.07885977e+00  2.13382696e+00  4.74933689e+00  5.33146160e+00
  5.34486563e+00  5.38573197e+00  5.65176384e+00  5.74240343e+00
  1.39306162e+01  1.39552433e+01  1.40299900e+01  1.64151955e+01
  1.65156805e+01  1.82858209e+01  5.13810816e+01  5.14603143e+01
  6.37146856e+01  1.79069312e+02  1.79111563e+02  2.06808681e+02
  8.40949261e+02]
alpha-B1g nocc = 0
   mo_energy = [  0.23568867   0.79231394   1.85178279   1.86607606   2.13382696
   5.34486563   5.38573197   5.74240343  13.95524333  14.02998998
  16.51568051  51.46031427 179.11156272]
alpha-B2g nocc = 0
   mo_energy = [  0.232584     0.77787282   1.84824594   1.85770733   2.09200454
   5.33480279   5.36177056   5.67355941  13.93675997  13.98622629
  16.44041692  51.40088502 179.07987264]
alpha-B3g nocc = 0
   mo_energy = [  0.232584     0.77787282   1.84824594   1.85770733   2.09200454
   5.33480279   5.36177056   5.67355941  13.93675997  13.98622629
  16.44041692  51.40088502 179.07987264]
alpha-Au nocc = 0
   mo_energy = [ 0.75847642  2.24982104  5.71214008 15.86221741 65.36398576]
alpha-B1u nocc = 1  HOMO = -0.844941774543971  LUMO = 0.0457992274133873
   mo_energy = [-8.44941775e-01  4.57992274e-02  2.14368897e-01  7.53964126e-01
  7.58476424e-01  8.69878697e-01  2.23521751e+00  2.24982104e+00
  3.27425283e+00  5.67974086e+00  5.71214008e+00  1.12115388e+01
  1.58141984e+01  1.58622174e+01  3.56437737e+01  6.53249698e+01
  6.53639858e+01  1.13622542e+02  3.67965751e+02]
alpha-B2u nocc = 1  HOMO = -0.730865190822292  LUMO = 0.0471999013493738
   mo_energy = [-7.30865191e-01  4.71999013e-02  2.23203421e-01  7.55131972e-01
  7.63960712e-01  9.06249385e-01  2.23886131e+00  2.26829609e+00
  3.34976121e+00  5.68779554e+00  5.75342281e+00  1.13039579e+01
  1.58261612e+01  1.59229281e+01  3.57245266e+01  6.53347156e+01
  6.54128801e+01  1.13674189e+02  3.67990360e+02]
alpha-B3u nocc = 1  HOMO = -0.730865190822284  LUMO = 0.0471999013493659
   mo_energy = [-7.30865191e-01  4.71999013e-02  2.23203421e-01  7.55131972e-01
  7.63960712e-01  9.06249385e-01  2.23886131e+00  2.26829609e+00
  3.34976121e+00  5.68779554e+00  5.75342281e+00  1.13039579e+01
  1.58261612e+01  1.59229281e+01  3.57245266e+01  6.53347156e+01
  6.54128801e+01  1.13674189e+02  3.67990360e+02]
beta-Ag nocc = 2  HOMO = -1.47807270638708  LUMO = 0.0461059223047247
   mo_energy = [-2.63604036e+01 -1.47807271e+00  4.61059223e-02  2.32411020e-01
  2.35478998e-01  2.80498549e-01  7.90916372e-01  7.91156167e-01
  1.23598714e+00  1.84955228e+00  1.85350400e+00  1.86543629e+00
  2.13797790e+00  2.15961421e+00  4.79866962e+00  5.34902780e+00
  5.35804548e+00  5.38510482e+00  5.75831673e+00  5.77883371e+00
  1.39748962e+01  1.39894895e+01  1.40333860e+01  1.65163162e+01
  1.65323968e+01  1.83270147e+01  5.14316823e+01  5.14699558e+01
  6.37347043e+01  1.79085355e+02  1.79114961e+02  2.06815703e+02
  8.40951200e+02]
beta-B1g nocc = 0
   mo_energy = [  0.235479     0.79115617   1.853504     1.86543629   2.1379779
   5.35804548   5.38510482   5.75831673  13.98948953  14.03338602
  16.53239678  51.46995575 179.11496065]
beta-B2g nocc = 0
   mo_energy = [  0.2332026    0.79079324   1.85053891   1.85846246   2.15355033
   5.35128062   5.36932941   5.77319405  13.97854252  14.00775999
  16.52027395  51.44124124 179.09275365]
beta-B3g nocc = 0
   mo_energy = [  0.2332026    0.79079324   1.85053891   1.85846246   2.15355033
   5.35128062   5.36932941   5.77319405  13.97854252  14.00775999
  16.52027395  51.44124124 179.09275365]
beta-Au nocc = 0
   mo_energy = [ 0.75904697  2.25758687  5.74137789 15.90927163 65.39255207]
beta-B1u nocc = 0
   mo_energy = [2.62225405e-02 6.32347109e-02 2.61903504e-01 7.55403767e-01
 7.59046968e-01 9.87647372e-01 2.24979998e+00 2.25758687e+00
 3.42833579e+00 5.72943089e+00 5.74137789e+00 1.13306922e+01
 1.58904470e+01 1.59092716e+01 3.57081505e+01 6.53703832e+01
 6.53925521e+01 1.13647905e+02 3.67973142e+02]
beta-B2u nocc = 1  HOMO = -0.680972438888669  LUMO = 0.0473118325895416
   mo_energy = [-6.80972439e-01  4.73118326e-02  2.24986850e-01  7.56311417e-01
  7.63552365e-01  9.16511614e-01  2.25174898e+00  2.26727564e+00
  3.37090138e+00  5.73242237e+00  5.75622486e+00  1.13261552e+01
  1.58951521e+01  1.59328193e+01  3.57393906e+01  6.53759226e+01
  6.54203046e+01  1.13680896e+02  3.67992589e+02]
beta-B3u nocc = 1  HOMO = -0.680972438888686  LUMO = 0.0473118325895374
   mo_energy = [-6.80972439e-01  4.73118326e-02  2.24986850e-01  7.56311417e-01
  7.63552365e-01  9.16511614e-01  2.25174898e+00  2.26727564e+00
  3.37090138e+00  5.73242237e+00  5.75622486e+00  1.13261552e+01
  1.58951521e+01  1.59328193e+01  3.57393906e+01  6.53759226e+01
  6.54203046e+01  1.13680896e+02  3.67992589e+02]
multiplicity <S^2> = 0.75402508  2S+1 = 2.004021
E1 = -139.24155719154402  Ecoul = 39.827438543584194
cycle= 5 E= -99.4141186479598  delta_E= -2.8e-05  |g|= 0.00166  |ddm|= 0.00531
    CPU time for cycle= 5      0.39 sec, wall time      0.10 sec
diis-norm(errvec)=0.00234262
diis-c [-7.74270831e-07 -5.19291650e-03  3.26994485e-02  1.01567781e-01
 -7.11752050e-01  1.58267774e+00]
alpha HOMO (B2u) = -0.731545218011049  LUMO (Ag) = 0.0452324320246181
alpha irrep_nelec = [2, 0, 0, 0, 0, 1, 1, 1]
beta  irrep_nelec = [2, 0, 0, 0, 0, 0, 1, 1]
alpha-Ag nocc = 2  HOMO = -1.67288878984951  LUMO = 0.0452324320246181
   mo_energy = [-2.64077628e+01 -1.67288879e+00  4.52324320e-02  2.31396029e-01
  2.35707351e-01  2.73775528e-01  7.73261252e-01  7.92420981e-01
  1.20843464e+00  1.84706097e+00  1.85179005e+00  1.86613134e+00
  2.07891049e+00  2.13384291e+00  4.74908095e+00  5.33145492e+00
  5.34486955e+00  5.38576020e+00  5.65153875e+00  5.74205156e+00
  1.39305798e+01  1.39551768e+01  1.40298131e+01  1.64150276e+01
  1.65153032e+01  1.82855955e+01  5.13811020e+01  5.14601107e+01
  6.37146038e+01  1.79069380e+02  1.79111486e+02  2.06808655e+02
  8.40949230e+02]
alpha-B1g nocc = 0
   mo_energy = [  0.23570735   0.79242098   1.85179005   1.86613134   2.13384291
   5.34486955   5.3857602    5.74205156  13.95517676  14.02981309
  16.51530319  51.46011072 179.11148578]
alpha-B2g nocc = 0
   mo_energy = [  0.23258941   0.77795818   1.84824135   1.85773452   2.09204713
   5.33479888   5.36178599   5.67330836  13.93671633  13.98611743
  16.44020065  51.40085235 179.0799054 ]
alpha-B3g nocc = 0
   mo_energy = [  0.23258941   0.77795818   1.84824135   1.85773452   2.09204713
   5.33479888   5.36178599   5.67330836  13.93671633  13.98611743
  16.44020065  51.40085235 179.0799054 ]
alpha-Au nocc = 0
   mo_energy = [ 0.75849224  2.24987446  5.71210246 15.86202423 65.36391171]
alpha-B1u nocc = 1  HOMO = -0.845523998464242  LUMO = 0.0457941350064913
   mo_energy = [-8.45523998e-01  4.57941350e-02  2.14336032e-01  7.53960757e-01
  7.58492243e-01  8.69736612e-01  2.23524895e+00  2.24987446e+00
  3.27401981e+00  5.67972338e+00  5.71210246e+00  1.12114021e+01
  1.58140973e+01  1.58620242e+01  3.56437878e+01  6.53250125e+01
  6.53639117e+01  1.13622620e+02  3.67965795e+02]
alpha-B2u nocc = 1  HOMO = -0.731545218011049  LUMO = 0.0472003542725231
   mo_energy = [-7.31545218e-01  4.72003543e-02  2.23186981e-01  7.55133766e-01
  7.63998966e-01  9.06120969e-01  2.23889829e+00  2.26837634e+00
  3.34948622e+00  5.68777344e+00  5.75335277e+00  1.13036671e+01
  1.58260380e+01  1.59226053e+01  3.57243356e+01  6.53347295e+01
  6.54126539e+01  1.13674101e+02  3.67990314e+02]
alpha-B3u nocc = 1  HOMO = -0.731545218011053  LUMO = 0.0472003542725211
   mo_energy = [-7.31545218e-01  4.72003543e-02  2.23186981e-01  7.55133766e-01
  7.63998966e-01  9.06120969e-01  2.23889829e+00  2.26837634e+00
  3.34948622e+00  5.68777344e+00  5.75335277e+00  1.13036671e+01
  1.58260380e+01  1.59226053e+01  3.57243356e+01  6.53347295e+01
  6.54126539e+01  1.13674101e+02  3.67990314e+02]
beta-Ag nocc = 2  HOMO = -1.47751432201076  LUMO = 0.0460936884225649
   mo_energy = [-2.63600103e+01 -1.47751432e+00  4.60936884e-02  2.32390344e-01
  2.35466122e-01  2.80450927e-01  7.90795194e-01  7.91012625e-01
  1.23600400e+00  1.84947830e+00  1.85344236e+00  1.86541061e+00
  2.13792351e+00  2.15950826e+00  4.79888863e+00  5.34890347e+00
  5.35793424e+00  5.38503073e+00  5.75864818e+00  5.77903860e+00
  1.39749657e+01  1.39895497e+01  1.40334161e+01  1.65166750e+01
  1.65327447e+01  1.83273061e+01  5.14319850e+01  5.14701270e+01
  6.37349097e+01  1.79085534e+02  1.79115021e+02  2.06815817e+02
  8.40951239e+02]
beta-B1g nocc = 0
   mo_energy = [  0.23546612   0.79101262   1.85344236   1.86541061   2.13792351
   5.35793424   5.38503073   5.75864818  13.98954967  14.03341605
  16.53274468  51.470127   179.11502082]
beta-B2g nocc = 0
   mo_energy = [  0.23318357   0.79066447   1.85046802   1.85841603   2.15344251
   5.35115961   5.36923393   5.77341429  13.97860969  14.00780793
  16.52062594  51.44151181 179.09290327]
beta-B3g nocc = 0
   mo_energy = [  0.23318357   0.79066447   1.85046802   1.85841603   2.15344251
   5.35115961   5.36923393   5.77341429  13.97860969  14.00780793
  16.52062594  51.44151181 179.09290327]
beta-Au nocc = 0
   mo_energy = [ 0.75901434  2.25746987  5.74134239 15.90950498 65.39279484]
beta-B1u nocc = 0
   mo_energy = [2.61867617e-02 6.32243610e-02 2.61923579e-01 7.55359196e-01
 7.59014344e-01 9.87685419e-01 2.24966838e+00 2.25746987e+00
 3.42842725e+00 5.72938235e+00 5.74134239e+00 1.13309236e+01
 1.58907083e+01 1.59095050e+01 3.57084457e+01 6.53707067e+01
 6.53927948e+01 1.13648138e+02 3.67973270e+02]
beta-B2u nocc = 1  HOMO = -0.680071015309555  LUMO = 0.0473164349084405
   mo_energy = [-6.80071015e-01  4.73164349e-02  2.25031242e-01  7.56269918e-01
  7.63534104e-01  9.16710173e-01  2.25162083e+00  2.26717784e+00
  3.37124019e+00  5.73237628e+00  5.75621528e+00  1.13264738e+01
  1.58954060e+01  1.59330243e+01  3.57395993e+01  6.53762260e+01
  6.54204451e+01  1.13681006e+02  3.67992638e+02]
beta-B3u nocc = 1  HOMO = -0.680071015309554  LUMO = 0.0473164349084356
   mo_energy = [-6.80071015e-01  4.73164349e-02  2.25031242e-01  7.56269918e-01
  7.63534104e-01  9.16710173e-01  2.25162083e+00  2.26717784e+00
  3.37124019e+00  5.73237628e+00  5.75621528e+00  1.13264738e+01
  1.58954060e+01  1.59330243e+01  3.57395993e+01  6.53762260e+01
  6.54204451e+01  1.13681006e+02  3.67992638e+02]
multiplicity <S^2> = 0.75418126  2S+1 = 2.0041769
E1 = -139.24109551897521  Ecoul = 39.826974089621224
cycle= 6 E= -99.414121429354  delta_E= -2.78e-06  |g|= 0.000255  |ddm|= 0.00187
    CPU time for cycle= 6      0.39 sec, wall time      0.10 sec
diis-norm(errvec)=0.000360482
diis-c [-4.74341799e-08  1.34513434e-03 -8.65188497e-03 -2.79476515e-02
  2.18450832e-01 -5.94926049e-01  1.41172962e+00]
alpha HOMO (B2u) = -0.731703867663897  LUMO (Ag) = 0.0452333030476492
alpha irrep_nelec = [2, 0, 0, 0, 0, 1, 1, 1]
beta  irrep_nelec = [2, 0, 0, 0, 0, 0, 1, 1]
alpha-Ag nocc = 2  HOMO = -1.6729724107525  LUMO = 0.0452333030476492
   mo_energy = [-2.64078322e+01 -1.67297241e+00  4.52333030e-02  2.31396423e-01
  2.35708808e-01  2.73779047e-01  7.73262763e-01  7.92437222e-01
  1.20842543e+00  1.84706401e+00  1.85179270e+00  1.86613060e+00
  2.07890240e+00  2.13383108e+00  4.74903917e+00  5.33145241e+00
  5.34486702e+00  5.38575179e+00  5.65150514e+00  5.74197725e+00
  1.39305493e+01  1.39551465e+01  1.40297776e+01  1.64149740e+01
  1.65152209e+01  1.82855354e+01  5.13810380e+01  5.14600457e+01
  6.37145487e+01  1.79069327e+02  1.79111441e+02  2.06808615e+02
  8.40949210e+02]
alpha-B1g nocc = 0
   mo_energy = [  0.23570881   0.79243722   1.8517927    1.8661306    2.13383108
   5.34486702   5.38575179   5.74197725  13.95514646  14.02977761
  16.51522086  51.46004572 179.1114413 ]
alpha-B2g nocc = 0
   mo_energy = [  0.23259068   0.77796567   1.84824432   1.85773615   2.09204205
   5.33479645   5.36178211   5.67326835  13.93668595  13.98608608
  16.44014096  51.40078852 179.07985452]
alpha-B3g nocc = 0
   mo_energy = [  0.23259068   0.77796567   1.84824432   1.85773615   2.09204205
   5.33479645   5.36178211   5.67326835  13.93668595  13.98608608
  16.44014096  51.40078852 179.07985452]
alpha-Au nocc = 0
   mo_energy = [ 0.75849441  2.24987917  5.71208628 15.8619709  65.3638456 ]
alpha-B1u nocc = 1  HOMO = -0.845476486065663  LUMO = 0.0457947707607856
   mo_energy = [-8.45476486e-01  4.57947708e-02  2.14340209e-01  7.53962865e-01
  7.58494414e-01  8.69751305e-01  2.23525148e+00  2.24987917e+00
  3.27402548e+00  5.67970874e+00  5.71208628e+00  1.12113717e+01
  1.58140480e+01  1.58619709e+01  3.56437331e+01  6.53249435e+01
  6.53638456e+01  1.13622565e+02  3.67965757e+02]
alpha-B2u nocc = 1  HOMO = -0.731703867663897  LUMO = 0.0471996317536858
   mo_energy = [-7.31703868e-01  4.71996318e-02  2.23179028e-01  7.55135960e-01
  7.64000114e-01  9.06083280e-01  2.23890161e+00  2.26837985e+00
  3.34941609e+00  5.68775874e+00  5.75332896e+00  1.13035916e+01
  1.58259879e+01  1.59225434e+01  3.57242718e+01  6.53346612e+01
  6.54125909e+01  1.13674053e+02  3.67990283e+02]
alpha-B3u nocc = 1  HOMO = -0.731703867663909  LUMO = 0.047199631753687
   mo_energy = [-7.31703868e-01  4.71996318e-02  2.23179028e-01  7.55135960e-01
  7.64000114e-01  9.06083280e-01  2.23890161e+00  2.26837985e+00
  3.34941609e+00  5.68775874e+00  5.75332896e+00  1.13035916e+01
  1.58259879e+01  1.59225434e+01  3.57242718e+01  6.53346612e+01
  6.54125909e+01  1.13674053e+02  3.67990283e+02]
beta-Ag nocc = 2  HOMO = -1.47748124984364  LUMO = 0.0460915491650097
   mo_energy = [-2.63600343e+01 -1.47748125e+00  4.60915492e-02  2.32390357e-01
  2.35461482e-01  2.80442334e-01  7.90789155e-01  7.90988648e-01
  1.23599857e+00  1.84947645e+00  1.85343740e+00  1.86539652e+00
  2.13791180e+00  2.15949940e+00  4.79888902e+00  5.34889521e+00
  5.35792269e+00  5.38501090e+00  5.75867345e+00  5.77902793e+00
  1.39749448e+01  1.39895328e+01  1.40334119e+01  1.65166423e+01
  1.65327613e+01  1.83272891e+01  5.14319329e+01  5.14701153e+01
  6.37348746e+01  1.79085485e+02  1.79114993e+02  2.06815782e+02
  8.40951219e+02]
beta-B1g nocc = 0
   mo_energy = [  0.23546148   0.79098865   1.8534374    1.86539652   2.1379118
   5.35792269   5.3850109    5.75867345  13.98953283  14.03341187
  16.53276133  51.47011535 179.11499349]
beta-B2g nocc = 0
   mo_energy = [  0.23318201   0.79065081   1.85046539   1.85840721   2.15342643
   5.35115051   5.36921852   5.77341149  13.97858978  14.00779627
  16.52060624  51.4414701  179.09285953]
beta-B3g nocc = 0
   mo_energy = [  0.23318201   0.79065081   1.85046539   1.85840721   2.15342643
   5.35115051   5.36921852   5.77341149  13.97858978  14.00779627
  16.52060624  51.4414701  179.09285953]
beta-Au nocc = 0
   mo_energy = [ 0.75900968  2.25745514  5.74132995 15.90949434 65.39275956]
beta-B1u nocc = 0
   mo_energy = [2.61758106e-02 6.32156483e-02 2.61919739e-01 7.55358403e-01
 7.59009676e-01 9.87678248e-01 2.24966164e+00 2.25745514e+00
 3.42840610e+00 5.72937030e+00 5.74132995e+00 1.13308859e+01
 1.58906808e+01 1.59094943e+01 3.57083928e+01 6.53706514e+01
 6.53927596e+01 1.13648084e+02 3.67973231e+02]
beta-B2u nocc = 1  HOMO = -0.679986040965517  LUMO = 0.0473164241461822
   mo_energy = [-6.79986041e-01  4.73164241e-02  2.25033428e-01  7.56268152e-01
  7.63525124e-01  9.16724535e-01  2.25161190e+00  2.26715629e+00
  3.37126198e+00  5.73236394e+00  5.75620639e+00  1.13264824e+01
  1.58953827e+01  1.59330350e+01  3.57395857e+01  6.53761757e+01
  6.54204344e+01  1.13680977e+02  3.67992612e+02]
beta-B3u nocc = 1  HOMO = -0.679986040965493  LUMO = 0.0473164241461703
   mo_energy = [-6.79986041e-01  4.73164241e-02  2.25033428e-01  7.56268152e-01
  7.63525124e-01  9.16724535e-01  2.25161190e+00  2.26715629e+00
  3.37126198e+00  5.73236394e+00  5.75620639e+00  1.13264824e+01
  1.58953827e+01  1.59330350e+01  3.57395857e+01  6.53761757e+01
  6.54204344e+01  1.13680977e+02  3.67992612e+02]
multiplicity <S^2> = 0.75420656  2S+1 = 2.0042021
E1 = -139.2411758534529  Ecoul = 39.82705435557939
cycle= 7 E= -99.4141214978735  delta_E= -6.85e-08  |g|= 5.2e-05  |ddm|= 0.000275
    CPU time for cycle= 7      0.39 sec, wall time      0.10 sec
diis-norm(errvec)=7.35427e-05
diis-c [-5.38332836e-10 -1.47886098e-04  1.02014490e-03  4.38248076e-03
 -3.64539642e-02  1.15115054e-01 -4.66302562e-01  1.38238673e+00]
[...]
  1.58953923e+01  1.59330545e+01  3.57396059e+01  6.53761882e+01
  6.54204603e+01  1.13680995e+02  3.67992625e+02]
beta-B3u nocc = 1  HOMO = -0.679967848835193  LUMO = 0.0473163885269176
   mo_energy = [-6.79967849e-01  4.73163885e-02  2.25033919e-01  7.56269011e-01
  7.63523898e-01  9.16728689e-01  2.25161486e+00  2.26715479e+00
  3.37127353e+00  5.73237044e+00  5.75621199e+00  1.13265004e+01
  1.58953923e+01  1.59330545e+01  3.57396059e+01  6.53761882e+01
  6.54204603e+01  1.13680995e+02  3.67992625e+02]
multiplicity <S^2> = 0.75421148  2S+1 = 2.0042071
E1 = -139.24114540019707  Ecoul = 39.827023900167674
cycle= 63 E= -99.4141215000294  delta_E= 1.42e-13  |g|= 3.32e-12  |ddm|= 5.49e-12
    CPU time for cycle= 63      0.41 sec, wall time      0.10 sec
diis-norm(errvec)=4.62102e-12
Linear dependence found in DIIS error vectors.
diis-c [-2.89052492e-16  1.25000000e-01  1.25000000e-01  1.25000000e-01
  1.25000000e-01  1.25000000e-01  1.25000000e-01  1.25000000e-01
  1.25000000e-01]
alpha HOMO (B3u) = -0.731720635568903  LUMO (Ag) = 0.0452338535443994
alpha irrep_nelec = [2, 0, 0, 0, 0, 1, 1, 1]
beta  irrep_nelec = [2, 0, 0, 0, 0, 0, 1, 1]
alpha-Ag nocc = 2  HOMO = -1.67296991034074  LUMO = 0.0452338535443994
   mo_energy = [-2.64078222e+01 -1.67296991e+00  4.52338535e-02  2.31396900e-01
  2.35709244e-01  2.73781403e-01  7.73263886e-01  7.92442401e-01
  1.20842931e+00  1.84706626e+00  1.85179452e+00  1.86613144e+00
  2.07890522e+00  2.13383688e+00  4.74904495e+00  5.33145694e+00
  5.34487136e+00  5.38575662e+00  5.65151334e+00  5.74197807e+00
  1.39305556e+01  1.39551533e+01  1.40297869e+01  1.64149845e+01
  1.65152271e+01  1.82855449e+01  5.13810493e+01  5.14600601e+01
  6.37145611e+01  1.79069338e+02  1.79111457e+02  2.06808626e+02
  8.40949216e+02]
alpha-B1g nocc = 0
   mo_energy = [  0.23570924   0.7924424    1.85179452   1.86613144   2.13383688
   5.34487136   5.38575662   5.74197807  13.95515327  14.02978691
  16.5152271   51.46006015 179.11145652]
alpha-B2g nocc = 0
   mo_energy = [  0.23259121   0.77796781   1.84824646   1.85773751   2.09204523
   5.33480091   5.36178647   5.67327436  13.9366924   13.98609371
  16.44015017  51.40080056 179.07986651]
alpha-B3g nocc = 0
   mo_energy = [  0.23259121   0.77796781   1.84824646   1.85773751   2.09204523
   5.33480091   5.36178647   5.67327436  13.9366924   13.98609371
  16.44015017  51.40080056 179.07986651]
alpha-Au nocc = 0
   mo_energy = [ 0.75849534  2.24988242  5.7120914  15.8619789  65.36385918]
alpha-B1u nocc = 1  HOMO = -0.845450127946518  LUMO = 0.0457950857173562
   mo_energy = [-8.45450128e-01  4.57950857e-02  2.14342721e-01  7.53964147e-01
  7.58495336e-01  8.69761118e-01  2.23525442e+00  2.24988242e+00
  3.27404069e+00  5.67971374e+00  5.71209140e+00  1.12113854e+01
  1.58140559e+01  1.58619789e+01  3.56437443e+01  6.53249545e+01
  6.53638592e+01  1.13622575e+02  3.67965765e+02]
alpha-B2u nocc = 1  HOMO = -0.731720635568928  LUMO = 0.0471995013153592
   mo_energy = [-7.31720636e-01  4.71995013e-02  2.23178140e-01  7.55137139e-01
  7.64000652e-01  9.06079881e-01  2.23890459e+00  2.26838393e+00
  3.34941337e+00  5.68776372e+00  5.75333522e+00  1.13035963e+01
  1.58259958e+01  1.59225523e+01  3.57242838e+01  6.53346729e+01
  6.54126077e+01  1.13674067e+02  3.67990294e+02]
alpha-B3u nocc = 1  HOMO = -0.731720635568903  LUMO = 0.0471995013153764
   mo_energy = [-7.31720636e-01  4.71995013e-02  2.23178140e-01  7.55137139e-01
  7.64000652e-01  9.06079881e-01  2.23890459e+00  2.26838393e+00
  3.34941337e+00  5.68776372e+00  5.75333522e+00  1.13035963e+01
  1.58259958e+01  1.59225523e+01  3.57242838e+01  6.53346729e+01
  6.54126077e+01  1.13674067e+02  3.67990294e+02]
beta-Ag nocc = 2  HOMO = -1.47746312425865  LUMO = 0.0460916252401666
   mo_energy = [-2.63600152e+01 -1.47746312e+00  4.60916252e-02  2.32390901e-01
  2.35460892e-01  2.80442975e-01  7.90791082e-01  7.90986421e-01
  1.23600288e+00  1.84947854e+00  1.85343852e+00  1.86539484e+00
  2.13791368e+00  2.15950450e+00  4.79890005e+00  5.34890051e+00
  5.35792689e+00  5.38501186e+00  5.75868794e+00  5.77903589e+00
  1.39749522e+01  1.39895415e+01  1.40334243e+01  1.65166515e+01
  1.65327838e+01  1.83273048e+01  5.14319432e+01  5.14701388e+01
  6.37348907e+01  1.79085495e+02  1.79115012e+02  2.06815795e+02
  8.40951226e+02]
beta-B1g nocc = 0
   mo_energy = [  0.23546089   0.79098642   1.85343852   1.86539484   2.13791368
   5.35792689   5.38501186   5.75868794  13.98954147  14.03342429
  16.53278378  51.4701388  179.11501203]
beta-B2g nocc = 0
   mo_energy = [  0.23318224   0.79065205   1.85046724   1.85840714   2.1534319
   5.35115553   5.36922136   5.77342145  13.9785975   14.00780646
  16.5206186   51.44148366 179.09287227]
beta-B3g nocc = 0
   mo_energy = [  0.23318224   0.79065205   1.85046724   1.85840714   2.1534319
   5.35115553   5.36922136   5.77342145  13.9785975   14.00780646
  16.5206186   51.44148366 179.09287227]
beta-Au nocc = 0
   mo_energy = [ 0.75900973  2.25745655  5.74133632 15.90950767 65.39277703]
beta-B1u nocc = 0
   mo_energy = [2.61798310e-02 6.32190009e-02 2.61922590e-01 7.55359527e-01
 7.59009727e-01 9.87682938e-01 2.24966508e+00 2.25745655e+00
 3.42841286e+00 5.72937681e+00 5.74133632e+00 1.13308928e+01
 1.58906892e+01 1.59095077e+01 3.57084003e+01 6.53706622e+01
 6.53927770e+01 1.13648093e+02 3.67973239e+02]
beta-B2u nocc = 1  HOMO = -0.679967848835425  LUMO = 0.0473163885269248
   mo_energy = [-6.79967849e-01  4.73163885e-02  2.25033919e-01  7.56269011e-01
  7.63523898e-01  9.16728689e-01  2.25161486e+00  2.26715479e+00
  3.37127353e+00  5.73237044e+00  5.75621199e+00  1.13265004e+01
  1.58953923e+01  1.59330545e+01  3.57396059e+01  6.53761882e+01
  6.54204603e+01  1.13680995e+02  3.67992625e+02]
beta-B3u nocc = 1  HOMO = -0.679967848835433  LUMO = 0.0473163885269257
   mo_energy = [-6.79967849e-01  4.73163885e-02  2.25033919e-01  7.56269011e-01
  7.63523898e-01  9.16728689e-01  2.25161486e+00  2.26715479e+00
  3.37127353e+00  5.73237044e+00  5.75621199e+00  1.13265004e+01
  1.58953923e+01  1.59330545e+01  3.57396059e+01  6.53761882e+01
  6.54204603e+01  1.13680995e+02  3.67992625e+02]
multiplicity <S^2> = 0.75421148  2S+1 = 2.0042071
E1 = -139.24114540019718  Ecoul = 39.82702390016776
cycle= 64 E= -99.4141215000294  delta_E= -2.84e-14  |g|= 3.04e-12  |ddm|= 2.62e-12
    CPU time for cycle= 64      0.40 sec, wall time      0.10 sec
diis-norm(errvec)=4.24832e-12
Linear dependence found in DIIS error vectors.
diis-c [-2.89052492e-16  1.25000000e-01  1.25000000e-01  1.25000000e-01
  1.25000000e-01  1.25000000e-01  1.25000000e-01  1.25000000e-01
  1.25000000e-01]
alpha HOMO (B3u) = -0.731720635568699  LUMO (Ag) = 0.0452338535444261
alpha irrep_nelec = [2, 0, 0, 0, 0, 1, 1, 1]
beta  irrep_nelec = [2, 0, 0, 0, 0, 0, 1, 1]
alpha-Ag nocc = 2  HOMO = -1.67296991034073  LUMO = 0.0452338535444261
   mo_energy = [-2.64078222e+01 -1.67296991e+00  4.52338535e-02  2.31396900e-01
  2.35709244e-01  2.73781403e-01  7.73263886e-01  7.92442401e-01
  1.20842931e+00  1.84706626e+00  1.85179452e+00  1.86613144e+00
  2.07890522e+00  2.13383688e+00  4.74904495e+00  5.33145694e+00
  5.34487136e+00  5.38575662e+00  5.65151334e+00  5.74197807e+00
  1.39305556e+01  1.39551533e+01  1.40297869e+01  1.64149845e+01
  1.65152271e+01  1.82855449e+01  5.13810493e+01  5.14600601e+01
  6.37145611e+01  1.79069338e+02  1.79111457e+02  2.06808626e+02
  8.40949216e+02]
alpha-B1g nocc = 0
   mo_energy = [  0.23570924   0.7924424    1.85179452   1.86613144   2.13383688
   5.34487136   5.38575662   5.74197807  13.95515327  14.02978691
  16.5152271   51.46006015 179.11145652]
alpha-B2g nocc = 0
   mo_energy = [  0.23259121   0.77796781   1.84824646   1.85773751   2.09204523
   5.33480091   5.36178647   5.67327436  13.9366924   13.98609371
  16.44015017  51.40080056 179.07986651]
alpha-B3g nocc = 0
   mo_energy = [  0.23259121   0.77796781   1.84824646   1.85773751   2.09204523
   5.33480091   5.36178647   5.67327436  13.9366924   13.98609371
  16.44015017  51.40080056 179.07986651]
alpha-Au nocc = 0
   mo_energy = [ 0.75849534  2.24988242  5.7120914  15.8619789  65.36385918]
alpha-B1u nocc = 1  HOMO = -0.845450127946394  LUMO = 0.0457950857173578
   mo_energy = [-8.45450128e-01  4.57950857e-02  2.14342721e-01  7.53964147e-01
  7.58495336e-01  8.69761118e-01  2.23525442e+00  2.24988242e+00
  3.27404069e+00  5.67971374e+00  5.71209140e+00  1.12113854e+01
  1.58140559e+01  1.58619789e+01  3.56437443e+01  6.53249545e+01
  6.53638592e+01  1.13622575e+02  3.67965765e+02]
alpha-B2u nocc = 1  HOMO = -0.731720635568708  LUMO = 0.0471995013153643
   mo_energy = [-7.31720636e-01  4.71995013e-02  2.23178140e-01  7.55137139e-01
  7.64000652e-01  9.06079881e-01  2.23890459e+00  2.26838393e+00
  3.34941337e+00  5.68776372e+00  5.75333522e+00  1.13035963e+01
  1.58259958e+01  1.59225523e+01  3.57242838e+01  6.53346729e+01
  6.54126077e+01  1.13674067e+02  3.67990294e+02]
alpha-B3u nocc = 1  HOMO = -0.731720635568699  LUMO = 0.0471995013153687
   mo_energy = [-7.31720636e-01  4.71995013e-02  2.23178140e-01  7.55137139e-01
  7.64000652e-01  9.06079881e-01  2.23890459e+00  2.26838393e+00
  3.34941337e+00  5.68776372e+00  5.75333522e+00  1.13035963e+01
  1.58259958e+01  1.59225523e+01  3.57242838e+01  6.53346729e+01
  6.54126077e+01  1.13674067e+02  3.67990294e+02]
beta-Ag nocc = 2  HOMO = -1.47746312425869  LUMO = 0.0460916252402061
   mo_energy = [-2.63600152e+01 -1.47746312e+00  4.60916252e-02  2.32390901e-01
  2.35460892e-01  2.80442975e-01  7.90791082e-01  7.90986421e-01
  1.23600288e+00  1.84947854e+00  1.85343852e+00  1.86539484e+00
  2.13791368e+00  2.15950450e+00  4.79890005e+00  5.34890051e+00
  5.35792689e+00  5.38501186e+00  5.75868794e+00  5.77903589e+00
  1.39749522e+01  1.39895415e+01  1.40334243e+01  1.65166515e+01
  1.65327838e+01  1.83273048e+01  5.14319432e+01  5.14701388e+01
  6.37348907e+01  1.79085495e+02  1.79115012e+02  2.06815795e+02
  8.40951226e+02]
beta-B1g nocc = 0
   mo_energy = [  0.23546089   0.79098642   1.85343852   1.86539484   2.13791368
   5.35792689   5.38501186   5.75868794  13.98954147  14.03342429
  16.53278378  51.4701388  179.11501203]
beta-B2g nocc = 0
   mo_energy = [  0.23318224   0.79065205   1.85046724   1.85840714   2.1534319
   5.35115553   5.36922136   5.77342145  13.9785975   14.00780646
  16.5206186   51.44148366 179.09287227]
beta-B3g nocc = 0
   mo_energy = [  0.23318224   0.79065205   1.85046724   1.85840714   2.1534319
   5.35115553   5.36922136   5.77342145  13.9785975   14.00780646
  16.5206186   51.44148366 179.09287227]
beta-Au nocc = 0
   mo_energy = [ 0.75900973  2.25745655  5.74133632 15.90950767 65.39277703]
beta-B1u nocc = 0
   mo_energy = [2.61798310e-02 6.32190009e-02 2.61922590e-01 7.55359527e-01
 7.59009727e-01 9.87682938e-01 2.24966508e+00 2.25745655e+00
 3.42841286e+00 5.72937681e+00 5.74133632e+00 1.13308928e+01
 1.58906892e+01 1.59095077e+01 3.57084003e+01 6.53706622e+01
 6.53927770e+01 1.13648093e+02 3.67973239e+02]
beta-B2u nocc = 1  HOMO = -0.679967848835626  LUMO = 0.0473163885269102
   mo_energy = [-6.79967849e-01  4.73163885e-02  2.25033919e-01  7.56269011e-01
  7.63523898e-01  9.16728689e-01  2.25161486e+00  2.26715479e+00
  3.37127353e+00  5.73237044e+00  5.75621199e+00  1.13265004e+01
  1.58953923e+01  1.59330545e+01  3.57396059e+01  6.53761882e+01
  6.54204603e+01  1.13680995e+02  3.67992625e+02]
beta-B3u nocc = 1  HOMO = -0.679967848835594  LUMO = 0.0473163885269221
   mo_energy = [-6.79967849e-01  4.73163885e-02  2.25033919e-01  7.56269011e-01
  7.63523898e-01  9.16728689e-01  2.25161486e+00  2.26715479e+00
  3.37127353e+00  5.73237044e+00  5.75621199e+00  1.13265004e+01
  1.58953923e+01  1.59330545e+01  3.57396059e+01  6.53761882e+01
  6.54204603e+01  1.13680995e+02  3.67992625e+02]
multiplicity <S^2> = 0.75421148  2S+1 = 2.0042071
E1 = -139.2411454001972  Ecoul = 39.82702390016778
cycle= 65 E= -99.4141215000294  delta_E= -1.42e-14  |g|= 2.65e-12  |ddm|= 9.39e-13
    CPU time for cycle= 65      0.42 sec, wall time      0.11 sec
alpha HOMO (B3u) = -0.731720635568116  LUMO (Ag) = 0.0452338535443886
alpha irrep_nelec = [2, 0, 0, 0, 0, 1, 1, 1]
beta  irrep_nelec = [2, 0, 0, 0, 0, 0, 1, 1]
alpha-Ag nocc = 2  HOMO = -1.6729699103401  LUMO = 0.0452338535443886
   mo_energy = [-2.64078222e+01 -1.67296991e+00  4.52338535e-02  2.31396900e-01
  2.35709244e-01  2.73781403e-01  7.73263886e-01  7.92442401e-01
  1.20842931e+00  1.84706626e+00  1.85179452e+00  1.86613144e+00
  2.07890522e+00  2.13383688e+00  4.74904495e+00  5.33145694e+00
  5.34487136e+00  5.38575662e+00  5.65151334e+00  5.74197807e+00
  1.39305556e+01  1.39551533e+01  1.40297869e+01  1.64149845e+01
  1.65152271e+01  1.82855449e+01  5.13810493e+01  5.14600601e+01
  6.37145611e+01  1.79069338e+02  1.79111457e+02  2.06808626e+02
  8.40949216e+02]
alpha-B1g nocc = 0
   mo_energy = [  0.23570924   0.7924424    1.85179452   1.86613144   2.13383688
   5.34487136   5.38575662   5.74197807  13.95515327  14.02978691
  16.5152271   51.46006015 179.11145652]
alpha-B2g nocc = 0
   mo_energy = [  0.23259121   0.77796781   1.84824646   1.85773751   2.09204523
   5.33480091   5.36178647   5.67327436  13.9366924   13.98609371
  16.44015017  51.40080056 179.07986651]
alpha-B3g nocc = 0
   mo_energy = [  0.23259121   0.77796781   1.84824646   1.85773751   2.09204523
   5.33480091   5.36178647   5.67327436  13.9366924   13.98609371
  16.44015017  51.40080056 179.07986651]
alpha-Au nocc = 0
   mo_energy = [ 0.75849534  2.24988242  5.7120914  15.8619789  65.36385918]
alpha-B1u nocc = 1  HOMO = -0.84545012794607  LUMO = 0.0457950857173687
   mo_energy = [-8.45450128e-01  4.57950857e-02  2.14342721e-01  7.53964147e-01
  7.58495336e-01  8.69761118e-01  2.23525442e+00  2.24988242e+00
  3.27404069e+00  5.67971374e+00  5.71209140e+00  1.12113854e+01
  1.58140559e+01  1.58619789e+01  3.56437443e+01  6.53249545e+01
  6.53638592e+01  1.13622575e+02  3.67965765e+02]
alpha-B2u nocc = 1  HOMO = -0.731720635568128  LUMO = 0.0471995013153725
   mo_energy = [-7.31720636e-01  4.71995013e-02  2.23178140e-01  7.55137139e-01
  7.64000652e-01  9.06079881e-01  2.23890459e+00  2.26838393e+00
  3.34941337e+00  5.68776372e+00  5.75333522e+00  1.13035963e+01
  1.58259958e+01  1.59225523e+01  3.57242838e+01  6.53346729e+01
  6.54126077e+01  1.13674067e+02  3.67990294e+02]
alpha-B3u nocc = 1  HOMO = -0.731720635568116  LUMO = 0.0471995013153691
   mo_energy = [-7.31720636e-01  4.71995013e-02  2.23178140e-01  7.55137139e-01
  7.64000652e-01  9.06079881e-01  2.23890459e+00  2.26838393e+00
  3.34941337e+00  5.68776372e+00  5.75333522e+00  1.13035963e+01
  1.58259958e+01  1.59225523e+01  3.57242838e+01  6.53346729e+01
  6.54126077e+01  1.13674067e+02  3.67990294e+02]
beta-Ag nocc = 2  HOMO = -1.47746312425919  LUMO = 0.0460916252402542
   mo_energy = [-2.63600152e+01 -1.47746312e+00  4.60916252e-02  2.32390901e-01
  2.35460892e-01  2.80442975e-01  7.90791082e-01  7.90986421e-01
  1.23600288e+00  1.84947854e+00  1.85343852e+00  1.86539484e+00
  2.13791368e+00  2.15950450e+00  4.79890005e+00  5.34890051e+00
  5.35792689e+00  5.38501186e+00  5.75868794e+00  5.77903589e+00
  1.39749522e+01  1.39895415e+01  1.40334243e+01  1.65166515e+01
  1.65327838e+01  1.83273048e+01  5.14319432e+01  5.14701388e+01
  6.37348907e+01  1.79085495e+02  1.79115012e+02  2.06815795e+02
  8.40951226e+02]
beta-B1g nocc = 0
   mo_energy = [  0.23546089   0.79098642   1.85343852   1.86539484   2.13791368
   5.35792689   5.38501186   5.75868794  13.98954147  14.03342429
  16.53278378  51.4701388  179.11501203]
beta-B2g nocc = 0
   mo_energy = [  0.23318224   0.79065205   1.85046724   1.85840714   2.1534319
   5.35115553   5.36922136   5.77342145  13.9785975   14.00780646
  16.5206186   51.44148366 179.09287227]
beta-B3g nocc = 0
   mo_energy = [  0.23318224   0.79065205   1.85046724   1.85840714   2.1534319
   5.35115553   5.36922136   5.77342145  13.9785975   14.00780646
  16.5206186   51.44148366 179.09287227]
beta-Au nocc = 0
   mo_energy = [ 0.75900973  2.25745655  5.74133632 15.90950767 65.39277703]
beta-B1u nocc = 0
   mo_energy = [2.61798310e-02 6.32190009e-02 2.61922590e-01 7.55359527e-01
 7.59009727e-01 9.87682938e-01 2.24966508e+00 2.25745655e+00
 3.42841286e+00 5.72937681e+00 5.74133632e+00 1.13308928e+01
 1.58906892e+01 1.59095077e+01 3.57084003e+01 6.53706622e+01
 6.53927770e+01 1.13648093e+02 3.67973239e+02]
beta-B2u nocc = 1  HOMO = -0.679967848836256  LUMO = 0.0473163885269108
   mo_energy = [-6.79967849e-01  4.73163885e-02  2.25033919e-01  7.56269011e-01
  7.63523898e-01  9.16728689e-01  2.25161486e+00  2.26715479e+00
  3.37127353e+00  5.73237044e+00  5.75621199e+00  1.13265004e+01
  1.58953923e+01  1.59330545e+01  3.57396059e+01  6.53761882e+01
  6.54204603e+01  1.13680995e+02  3.67992625e+02]
beta-B3u nocc = 1  HOMO = -0.679967848836232  LUMO = 0.0473163885269098
   mo_energy = [-6.79967849e-01  4.73163885e-02  2.25033919e-01  7.56269011e-01
  7.63523898e-01  9.16728689e-01  2.25161486e+00  2.26715479e+00
  3.37127353e+00  5.73237044e+00  5.75621199e+00  1.13265004e+01
  1.58953923e+01  1.59330545e+01  3.57396059e+01  6.53761882e+01
  6.54204603e+01  1.13680995e+02  3.67992625e+02]
multiplicity <S^2> = 0.75421148  2S+1 = 2.0042071
E1 = -139.24114540019747  Ecoul = 39.827023900168044
Extra cycle  E= -99.4141215000294  delta_E= 1.42e-14  |g|= 2.03e-12  |ddm|= 9.39e-13
    CPU time for scf_cycle     33.36 sec, wall time      8.60 sec
    CPU time for SCF     33.39 sec, wall time      8.62 sec
converged SCF energy = -99.4141215000294  <S^2> = 0.75421148  2S+1 = 2.0042071
irreps of each MO ['Ag' 'Ag' 'B1u' 'B2u' 'B3u' 'Ag' 'B1u' 'B2u' 'B3u' 'B1u' 'B2u' 'B3u' 'Ag'
 'B2g' 'B3g' 'Ag' 'B1g' 'Ag' 'B1u' 'B2u' 'B3u' 'Au' 'B1u' 'B2u' 'B3u' 'Ag'
 'B2g' 'B3g' 'Ag' 'B1g' 'B1u' 'B2u' 'B3u' 'Ag' 'Ag' 'B2g' 'B3g' 'Ag' 'B1g'
 'B2g' 'B3g' 'Ag' 'B1g' 'Ag' 'B2g' 'B3g' 'Ag' 'B1g' 'B1u' 'B2u' 'B3u' 'Au'
 'B1u' 'B2u' 'B3u' 'B1u' 'B2u' 'B3u' 'Ag' 'Ag' 'B2g' 'B3g' 'Ag' 'B1g'
 'B2g' 'B3g' 'Ag' 'B1g' 'Ag' 'B2g' 'B3g' 'B1u' 'B2u' 'B3u' 'Au' 'B1u' 'Ag'
 'B1g' 'B2u' 'B3u' 'B1u' 'B2u' 'B3u' 'Ag' 'B2g' 'B3g' 'Ag' 'B1g' 'B2g'
 'B3g' 'Ag' 'B1g' 'B1u' 'B2u' 'B3u' 'Au' 'B1u' 'B2u' 'B3u' 'Ag' 'B2g'
 'B3g' 'Ag' 'B1g' 'Ag' 'B1u' 'B2u' 'B3u' 'Ag' 'B2g' 'B3g' 'Ag' 'B1g' 'Ag'
 'B1u' 'B2u' 'B3u' 'Au' 'B1u' 'B2u' 'B3u' 'B1u' 'B2u' 'B3u' 'Ag' 'B2g'
 'B3g' 'Ag' 'B1g' 'Ag' 'B1u' 'B2u' 'B3u' 'Ag']
irreps of each MO ['Ag' 'Ag' 'B2u' 'B3u' 'B1u' 'Ag' 'B2u' 'B3u' 'B1u' 'B2u' 'B3u' 'Ag' 'B2g'
 'B3g' 'Ag' 'B1g' 'B1u' 'Ag' 'B1u' 'B2u' 'B3u' 'Au' 'B1u' 'B2u' 'B3u'
 'B2g' 'B3g' 'Ag' 'Ag' 'B1g' 'B2u' 'B3u' 'B1u' 'Ag' 'Ag' 'B2g' 'B3g' 'Ag'
 'B1g' 'B2g' 'B3g' 'Ag' 'B1g' 'Ag' 'B1g' 'B2g' 'B3g' 'Ag' 'B1u' 'B2u'
 'B3u' 'Au' 'B1u' 'B2u' 'B3u' 'B2u' 'B3u' 'B1u' 'Ag' 'Ag' 'B2g' 'B3g' 'Ag'
 'B1g' 'B2g' 'B3g' 'Ag' 'B1g' 'B1u' 'B2u' 'B3u' 'Au' 'B1u' 'B2u' 'B3u'
 'Ag' 'B1g' 'B2g' 'B3g' 'Ag' 'B2u' 'B3u' 'B1u' 'Ag' 'B2g' 'B3g' 'Ag' 'B1g'
 'B2g' 'B3g' 'Ag' 'B1g' 'B1u' 'B2u' 'B3u' 'Au' 'B1u' 'B2u' 'B3u' 'Ag'
 'B2g' 'B3g' 'Ag' 'B1g' 'Ag' 'B1u' 'B2u' 'B3u' 'Ag' 'B2g' 'B3g' 'Ag' 'B1g'
 'Ag' 'B1u' 'B2u' 'B3u' 'Au' 'B1u' 'B2u' 'B3u' 'B1u' 'B2u' 'B3u' 'Ag'
 'B2g' 'B3g' 'Ag' 'B1g' 'Ag' 'B1u' 'B2u' 'B3u' 'Ag']
irreps of each MO ['Ag' 'Ag' 'B2u' 'B3u' 'B1u' 'Ag' 'B1u' 'B3u' 'B2u' 'B1u' 'B2u' 'B3u' 'Ag'
 'B3g' 'B2g' 'Ag' 'B1g' 'Ag' 'B1u' 'B2u' 'B3u' 'Au' 'B1u' 'B3u' 'B2u' 'Ag'
 'B3g' 'B2g' 'B1g' 'Ag' 'B1u' 'B3u' 'B2u' 'Ag' 'Ag' 'B2g' 'B3g' 'B1g' 'Ag'
 'B2g' 'B3g' 'B1g' 'Ag' 'Ag' 'B2g' 'B3g' 'B1g' 'Ag' 'B1u' 'B2u' 'B3u' 'Au'
 'B1u' 'B2u' 'B3u' 'B1u' 'B3u' 'B2u' 'Ag' 'Ag' 'B3g' 'B2g' 'B1g' 'Ag'
 'B3g' 'B2g' 'B1g' 'Ag' 'Ag' 'B2g' 'B3g' 'B1u' 'B3u' 'B2u' 'B1u' 'Au' 'Ag'
 'B1g' 'B3u' 'B2u' 'B1u' 'B3u' 'B2u' 'Ag' 'B3g' 'B2g' 'Ag' 'B1g' 'B2g'
 'B3g' 'B1g' 'Ag' 'B1u' 'B3u' 'B2u' 'Au' 'B1u' 'B3u' 'B2u' 'Ag' 'B2g'
 'B3g' 'Ag' 'B1g' 'Ag' 'B1u' 'B3u' 'B2u' 'Ag' 'B2g' 'B3g' 'Ag' 'B1g' 'Ag'
 'B1u' 'B3u' 'B2u' 'B1u' 'Au' 'B3u' 'B2u' 'B1u' 'B2u' 'B3u' 'Ag' 'B2g'
 'B3g' 'Ag' 'B1g' 'Ag' 'B1u' 'B2u' 'B3u' 'Ag']
