  &FCI NORB=  5,NELEC=  8,MS2=  2,
  ORBSYM= 1, 1, 2, 3, 5,
  ISYM=0
 &END
     4.7471458941        1    1    1    1
   -0.47858073728        2    1    1    1
    0.75405544230E-01    2    1    2    1
     1.1157693194        2    2    1    1
   -0.22522550405E-01    2    2    2    1
    0.79378507170        2    2    2    2
    0.25963243749E-01    3    1    3    1
    0.36129281063E-01    3    2    3    1
    0.17223867491        3    2    3    2
     1.1153401718        3    3    1    1
   -0.14368671824E-01    3    3    2    1
    0.80348964877        3    3    2    2
    0.88015909452        3    3    3    3
    0.25963243749E-01    4    1    4    1
    0.36129281063E-01    4    2    4    1
    0.17223867491        4    2    4    2
    0.47444446626E-01    4    3    4    3
     1.1153401718        4    4    1    1
   -0.14368671824E-01    4    4    2    1
    0.80348964877        4    4    2    2
    0.78527020127        4    4    3    3
    0.88015909452        4    4    4    4
    0.25963243749E-01    5    1    5    1
    0.36129281063E-01    5    2    5    1
    0.17223867491        5    2    5    2
    0.47444446626E-01    5    3    5    3
    0.47444446626E-01    5    4    5    4
     1.1153401718        5    5    1    1
   -0.14368671824E-01    5    5    2    1
    0.80348964877        5    5    2    2
    0.78527020127        5    5    3    3
    0.78527020127        5    5    4    4
    0.88015909452        5    5    5    5
    -31.597978965        1    1    0    0
    0.66696581818        2    1    0    0
    -6.9402516329        2    2    0    0
    -6.4507234399        3    3    0    0
    -6.4507234399        4    4    0    0
    -6.4507234399        5    5    0    0
    -20.285000000        1    0    0    0
    -1.1209000000        2    0    0    0
   -0.86542000000E-01    3    0    0    0
   -0.86542000000E-01    4    0    0    0
   -0.40801000000        5    0    0    0
     0.0000000000        0    0    0    0
