[Molden Format]
[N_Atoms]
                    1
[Atoms] (AU)
O1          1      8           0.00000000      0.00000000      0.00000000
[Charge] (Mulliken)
   0.0000000000000000     
[GTO] (AU)
   1
   s   3
  1.307093200E+02  1.543289166E-01
  2.380886100E+01  5.353281577E-01
  6.443608300E+00  4.446345479E-01
   s   3
  5.033151300E+00 -9.996720690E-02
  1.169596100E+00  3.995128276E-01
  3.803890000E-01  7.001154483E-01
   p   3
  5.033151300E+00  1.559162193E-01
  1.169596100E+00  6.076837754E-01
  3.803890000E-01  3.919573486E-01
 
[MO]
Sym=     1ag 
Ene=   -20.3110
Spin= Alpha
Occup=    1.00000
   1         0.99452985
   2         0.02213278
   3         0.00000000
   4         0.00000000
   5         0.00000000
Sym=     1ag 
Ene=   -20.2600
Spin= Beta
Occup=    1.00000
   1         0.99551475
   2         0.01828225
   3         0.00000000
   4         0.00000000
   5         0.00000000
Sym=     2ag 
Ene=    -1.2931
Spin= Alpha
Occup=    1.00000
   1        -0.26507488
   2         1.02901140
   3         0.00000000
   4         0.00000000
   5         0.00000000
Sym=     2ag 
Ene=    -0.9483
Spin= Beta
Occup=    1.00000
   1        -0.26135167
   2         1.02908701
   3         0.00000000
   4         0.00000000
   5         0.00000000
Sym=     1b3u
Ene=    -0.5503
Spin= Alpha
Occup=    1.00000
   1         0.00000000
   2         0.00000000
   3         1.00000000
   4         0.00000000
   5         0.00000000
Sym=     1b3u
Ene=     0.3773
Spin= Beta
Occup=    0.00000
   1         0.00000000
   2         0.00000000
   3         1.00000000
   4         0.00000000
   5         0.00000000
Sym=     1b2u
Ene=    -0.5503
Spin= Alpha
Occup=    1.00000
   1         0.00000000
   2         0.00000000
   3         0.00000000
   4         1.00000000
   5         0.00000000
Sym=     1b2u
Ene=     0.3773
Spin= Beta
Occup=    0.00000
   1         0.00000000
   2         0.00000000
   3         0.00000000
   4         1.00000000
   5         0.00000000
Sym=     1b1u
Ene=    -0.4555
Spin= Alpha
Occup=    1.00000
   1         0.00000000
   2         0.00000000
   3         0.00000000
   4         0.00000000
   5         1.00000000
Sym=     1b1u
Ene=    -0.3606
Spin= Beta
Occup=    1.00000
   1         0.00000000
   2         0.00000000
   3         0.00000000
   4         0.00000000
   5         1.00000000
