#INFO: **** input file is /lustre09/project/6004934/jaafar1/PySCF-MRCC/Carbon/cation/dawCV2Z/UHF/input.py ****
import pyscf
from pyscf import cc, lib, tools, scf, symm, ao2mo
from pyscf.gto.basis import parse_gaussian
from pyscf.scf import atom_hf

name = 'out'
mol = pyscf.M(
    atom = '''
        C
    ''',
    unit = 'angstrom',
    basis = {
            'C' : parse_gaussian.load('C-d-aug-cc-pwCVDZ.gbs', 'C')
    },
    charge = +1,
    spin = 1,
    symmetry = True,
    verbose = 9,
    symmetry_subgroup = 'D2h',
    output = name +'.txt',
    max_memory = 4000,
)

original_AtomSphAverageRHF = atom_hf.AtomSphAverageRHF

class CustomAtomSphAverageRHF(original_AtomSphAverageRHF):
    def __init__(self, mol):
        super().__init__(mol)
        self.max_cycle = 9999
        self.direct_scf = False

atom_hf.AtomSphAverageRHF = CustomAtomSphAverageRHF

mf = mol.UHF().set(
    conv_tol=1e-15,
    max_cycle=9999,
    ddm_tol=1e-14,
    direct_scf=False,
    chkfile=name + '.chk',
    init_guess='atom',
    irrep_nelec={'Ag': 4, 'B3u': 1}
)

mf.kernel()

atom_hf.AtomSphAverageRHF = original_AtomSphAverageRHF

#pyscf.tools.fcidump.from_chkfile_uhf('FCIdump',name+'.chk',tol=1e-18, float_format='% 0.20E',molpro_orbsym=False,orbsym=None)
pyscf.tools.fcidump.from_scf_uhf(mf,'fort.55',tol=1e-18, float_format='% 0.20E',molpro_orbsym=False)
#MRCCInterface.run_mrcc(mf, fort_file='fort.55', mrcc_input_file='MINP', tol=1e-18, float_format='% 0.20E', molpro_orbsym=False)
#INFO: ******************** input file end ********************


System: uname_result(system='Linux', node='rc32307', release='5.14.0-687.5.4.el9_8.x86_64', version='#1 SMP PREEMPT_DYNAMIC Thu May 28 09:20:26 EDT 2026', machine='x86_64')  Threads 4
Python 3.13.2 (main, Feb  5 2025, 15:06:39) [GCC 13.3.0]
numpy 2.2.2  scipy 1.15.1  h5py 3.13.0
Date: Wed Jun 10 05:50:11 2026
PySCF version 2.10.0
PySCF path  /home/jaafar1/links/projects/rrg-tzeng/jaafar1/VENV/MRCCInterface/lib/python3.13/site-packages/pyscf

[CONFIG] ARGPARSE = False
[CONFIG] DEBUG = False
[CONFIG] MAX_MEMORY = 4000
[CONFIG] TMPDIR = /tmp
[CONFIG] UNIT = angstrom
[CONFIG] VERBOSE = 3
[CONFIG] conf_file = None
[INPUT] verbose = 9
[INPUT] max_memory = 4000 
[INPUT] num. atoms = 1
[INPUT] num. electrons = 5
[INPUT] charge = 1
[INPUT] spin (= nelec alpha-beta = 2S) = 1
[INPUT] symmetry True subgroup D2h
[INPUT] Mole.unit = angstrom
[INPUT] Symbol           X                Y                Z      unit          X                Y                Z       unit  Magmom
[INPUT]  1 C      0.000000000000   0.000000000000   0.000000000000 AA    0.000000000000   0.000000000000   0.000000000000 Bohr   0.0
[INPUT] ---------------- BASIS SET ---------------- 
[INPUT] l, kappa, [nprim/nctr], expnt,             c_1 c_2 ...
[INPUT] C
[INPUT] 0    0    [9    /2   ]  6665              0.000692 -0.000146
                                1000              0.005329 -0.001154
                                228               0.027077 -0.005725
                                64.71             0.101718 -0.023312
                                21.06             0.27474 -0.063955
                                7.495             0.448564 -0.149981
                                2.797             0.285074 -0.127262
                                0.5215            0.015204 0.544529
                                0.1596            -0.003191 0.580496
[INPUT] 0    0    [1    /1   ]  3.339                1
[INPUT] 0    0    [1    /1   ]  0.1596               1
[INPUT] 0    0    [1    /1   ]  0.0469               1
[INPUT] 0    0    [1    /1   ]  0.0138               1
[INPUT] 1    0    [1    /1   ]  7.235                1
[INPUT] 1    0    [4    /1   ]  9.439             0.038109
                                2.002             0.20948
                                0.5456            0.508557
                                0.1517            0.468842
[INPUT] 1    0    [1    /1   ]  0.1517               1
[INPUT] 1    0    [1    /1   ]  0.04041              1
[INPUT] 1    0    [1    /1   ]  0.0108               1
[INPUT] 2    0    [1    /1   ]  0.55                 1
[INPUT] 2    0    [1    /1   ]  0.151                1
[INPUT] 2    0    [1    /1   ]  0.0415               1

nuclear repulsion = 0
point group symmetry = SO3, use subgroup D2h
symmetry origin: [0. 0. 0.]
symmetry axis x: [1. 0. 0.]
symmetry axis y: [0. 1. 0.]
symmetry axis z: [0. 0. 1.]
num. orbitals of irrep Ag = 12
num. orbitals of irrep B1g = 3
num. orbitals of irrep B2g = 3
num. orbitals of irrep B3g = 3
num. orbitals of irrep B1u = 5
num. orbitals of irrep B2u = 5
num. orbitals of irrep B3u = 5
number of shells = 13
number of NR pGTOs = 52
number of NR cGTOs = 36
basis = {'C': [[0, [6665.0, 0.000692, -0.000146], [1000.0, 0.005329, -0.001154], [228.0, 0.027077, -0.005725], [64.71, 0.101718, -0.023312], [21.06, 0.27474, -0.063955], [7.495, 0.448564, -0.149981], [2.797, 0.285074, -0.127262], [0.5215, 0.015204, 0.544529], [0.1596, -0.003191, 0.580496]], [0, [3.339, 1.0]], [0, [0.1596, 1.0]], [0, [0.0469, 1.0]], [0, [0.0138, 1.0]], [1, [7.235, 1.0]], [1, [9.439, 0.038109], [2.002, 0.20948], [0.5456, 0.508557], [0.1517, 0.468842]], [1, [0.1517, 1.0]], [1, [0.04041, 1.0]], [1, [0.0108, 1.0]], [2, [0.55, 1.0]], [2, [0.151, 1.0]], [2, [0.0415, 1.0]]]}
ecp = {}
bas 0, expnt(s) = [6.665e+03 1.000e+03 2.280e+02 6.471e+01 2.106e+01 7.495e+00 2.797e+00
 5.215e-01 1.596e-01]
bas 1, expnt(s) = [3.339]
bas 2, expnt(s) = [0.1596]
bas 3, expnt(s) = [0.0469]
bas 4, expnt(s) = [0.0138]
bas 5, expnt(s) = [7.235]
bas 6, expnt(s) = [9.439  2.002  0.5456 0.1517]
bas 7, expnt(s) = [0.1517]
bas 8, expnt(s) = [0.04041]
bas 9, expnt(s) = [0.0108]
bas 10, expnt(s) = [0.55]
bas 11, expnt(s) = [0.151]
bas 12, expnt(s) = [0.0415]
CPU time:         1.36
arg.atm = [[ 6 20  1 23  0  0]]
arg.bas = [[ 0  0  9  2  0 24 33  0]
 [ 0  0  1  1  0 51 52  0]
 [ 0  0  1  1  0 53 54  0]
 [ 0  0  1  1  0 55 56  0]
 [ 0  0  1  1  0 57 58  0]
 [ 0  1  1  1  0 59 60  0]
 [ 0  1  4  1  0 61 65  0]
 [ 0  1  1  1  0 69 70  0]
 [ 0  1  1  1  0 71 72  0]
 [ 0  1  1  1  0 73 74  0]
 [ 0  2  1  1  0 75 76  0]
 [ 0  2  1  1  0 77 78  0]
 [ 0  2  1  1  0 79 80  0]]
arg.env = [ 0.00000000e+00  0.00000000e+00  0.00000000e+00  0.00000000e+00
  0.00000000e+00  0.00000000e+00  0.00000000e+00  0.00000000e+00
  0.00000000e+00  0.00000000e+00  0.00000000e+00  0.00000000e+00
  0.00000000e+00  0.00000000e+00  0.00000000e+00  0.00000000e+00
  0.00000000e+00  0.00000000e+00  0.00000000e+00  0.00000000e+00
  0.00000000e+00  0.00000000e+00  0.00000000e+00  0.00000000e+00
  6.66500000e+03  1.00000000e+03  2.28000000e+02  6.47100000e+01
  2.10600000e+01  7.49500000e+00  2.79700000e+00  5.21500000e-01
  1.59600000e-01  1.28964847e+00  2.39420237e+00  4.01390248e+00
  5.86329167e+00  6.82387096e+00  5.13355572e+00  1.55772968e+00
  2.35729390e-02 -2.03571326e-03 -2.72093512e-01 -5.18466887e-01
 -8.48675845e-01 -1.34376492e+00 -1.58848637e+00 -1.71644617e+00
 -6.95397795e-01  8.44261459e-01  3.70330185e-01  3.33900000e+00
  6.24061425e+00  1.59600000e-01  6.37954477e-01  4.69000000e-02
  2.54621256e-01  1.38000000e-02  1.01724213e-01  7.23500000e+00
  3.46164527e+01  9.43900000e+00  2.00200000e+00  5.45600000e-01
  1.51700000e-01  1.83937242e+00  1.45531596e+00  6.95692343e-01
  1.29492054e-01  1.51700000e-01  2.76195354e-01  4.04100000e-02
  5.28561414e-02  1.08000000e-02  1.01569681e-02  5.50000000e-01
  9.16566738e-01  1.51000000e-01  9.54418928e-02  4.15000000e-02
  9.95665721e-03]
ecpbas  = []


******** <class 'pyscf.scf.uhf_symm.SymAdaptedUHF'> ********
method = SymAdaptedUHF
initial guess = atom
damping factor = 0
level_shift factor = 0
DIIS = <class 'pyscf.scf.diis.CDIIS'>
diis_start_cycle = 1
diis_space = 8
diis_damp = 0
SCF conv_tol = 1e-15
SCF conv_tol_grad = None
SCF ddm_tol = 1e-14
SCF max_cycles = 9999
direct_scf = False
chkfile to save SCF result = out.chk
max_memory 4000 MB (current use 122 MB)
number electrons alpha = 3  beta = 2
irrep_nelec {'Ag': 4, 'B3u': 1}
Freeze 5 electrons in irreps ['Ag', 'B3u']
    0 free electrons in irreps B1g B2g B3g B1u B2u
cond(S) = 168.38632836536877

WARN: Singularity detected in overlap matrix (condition number =  168). SCF may be inaccurate and hard to converge.

Set gradient conv threshold to 3.16228e-08
Spherically averaged atomic HF for {'C'}


******** <class '__main__.CustomAtomSphAverageRHF'> ********
method = CustomAtomSphAverageRHF
initial guess = minao
damping factor = 0
level_shift factor = 0
DIIS = <class 'pyscf.scf.diis.CDIIS'>
diis_start_cycle = 1
diis_space = 8
diis_damp = 0
SCF conv_tol = 1e-09
SCF conv_tol_grad = None
SCF ddm_tol = 1e-10
SCF max_cycles = 9999
direct_scf = False
chkfile to save SCF result = /tmp/tmppepduwg6
max_memory 4000 MB (current use 123 MB)
atom = C
Set gradient conv threshold to 3.16228e-05
Initial guess from minao.
Nelec from initial guess = 5.998953240353414
E1 = -50.75497631307415  E_coul = 13.476481118347827
init E= -37.2784951947263
l = 0  e_0 = -11.2229272
l = 0  e_1 = -0.672187747
l = 0  e_2 = 0.0251826332
l = 0  e_3 = 0.175655965
l = 0  e_4 = 1.03461776
l = 0  e_5 = 13.0072272
l = 1  e_0 = -0.0473715191
l = 1  e_1 = 0.0282705276
l = 1  e_2 = 0.167666439
l = 1  e_3 = 0.858462738
l = 1  e_4 = 10.5851764
l = 2  e_0 = 0.137877146
l = 2  e_1 = 0.538926772
l = 2  e_2 = 1.76065666
    CPU time for initialize scf      0.09 sec, wall time      0.05 sec
l = 0  e_0 = -11.2229272
l = 0  e_1 = -0.672187747
l = 0  e_2 = 0.0251826332
l = 0  e_3 = 0.175655965
l = 0  e_4 = 1.03461776
l = 0  e_5 = 13.0072272
l = 1  e_0 = -0.0473715191
l = 1  e_1 = 0.0282705276
l = 1  e_2 = 0.167666439
l = 1  e_3 = 0.858462738
l = 1  e_4 = 10.5851764
l = 2  e_0 = 0.137877146
l = 2  e_1 = 0.538926772
l = 2  e_2 = 1.76065666
l = 0  occ = 2 + 0
l = 1  occ = 0 + 0.6667
l = 2  occ = 0 + 0
l = 3  occ = 0 + 0
E1 = -49.25677371980006  E_coul = 11.93311220790448
cycle= 1 E= -37.3236615118956  delta_E= -0.0452  |g|=    0  |ddm|= 0.415
    CPU time for cycle= 1      0.00 sec, wall time      0.00 sec
diis-norm(errvec)=0.228028
diis-c [-0.05199682  1.        ]
l = 0  e_0 = -11.6607676
l = 0  e_1 = -0.856765718
l = 0  e_2 = 0.01932765
l = 0  e_3 = 0.145370807
l = 0  e_4 = 0.896941727
l = 0  e_5 = 12.6229786
l = 1  e_0 = -0.189951507
l = 1  e_1 = 0.0259157879
l = 1  e_2 = 0.141116449
l = 1  e_3 = 0.716914658
l = 1  e_4 = 10.1850471
l = 2  e_0 = 0.130473142
l = 2  e_1 = 0.484362969
l = 2  e_2 = 1.60037273
l = 0  occ = 2 + 0
l = 1  occ = 0 + 0.6667
l = 2  occ = 0 + 0
l = 3  occ = 0 + 0
E1 = -50.11898197483054  E_coul = 12.783207787380404
cycle= 2 E= -37.3357741874501  delta_E= -0.0121  |g|=    0  |ddm|= 0.525
    CPU time for cycle= 2      0.01 sec, wall time      0.00 sec
diis-norm(errvec)=0.103119
diis-c [-3.43055329e-04  3.08600594e-01  6.91399406e-01]
l = 0  e_0 = -11.4899953
l = 0  e_1 = -0.787674163
l = 0  e_2 = 0.0221957258
l = 0  e_3 = 0.157384126
l = 0  e_4 = 0.948275254
l = 0  e_5 = 12.7713878
l = 1  e_0 = -0.133068136
l = 1  e_1 = 0.0270421764
l = 1  e_2 = 0.152705192
l = 1  e_3 = 0.772622819
l = 1  e_4 = 10.3407672
l = 2  e_0 = 0.133936651
l = 2  e_1 = 0.506658441
l = 2  e_2 = 1.66339118
l = 0  occ = 2 + 0
l = 1  occ = 0 + 0.6667
l = 2  occ = 0 + 0
l = 3  occ = 0 + 0
E1 = -49.841067748625996  E_coul = 12.501332986857514
cycle= 3 E= -37.3397347617685  delta_E= -0.00396  |g|=    0  |ddm|= 0.144
    CPU time for cycle= 3      0.01 sec, wall time      0.00 sec
diis-norm(errvec)=0.00611783
diis-c [-4.41504958e-06 -5.44232822e-02 -6.23303086e-02  1.11675359e+00]
l = 0  e_0 = -11.4918782
l = 0  e_1 = -0.787870298
l = 0  e_2 = 0.0225307723
l = 0  e_3 = 0.157962325
l = 0  e_4 = 0.948844714
l = 0  e_5 = 12.7700612
l = 1  e_0 = -0.13258766
l = 1  e_1 = 0.0271799341
l = 1  e_2 = 0.153491129
l = 1  e_3 = 0.773777325
l = 1  e_4 = 10.3394327
l = 2  e_0 = 0.13438317
l = 2  e_1 = 0.5077274
l = 2  e_2 = 1.66464596
l = 0  occ = 2 + 0
l = 1  occ = 0 + 0.6667
l = 2  occ = 0 + 0
l = 3  occ = 0 + 0
E1 = -49.84379349077756  E_coul = 12.504052099494352
cycle= 4 E= -37.3397413912832  delta_E= -6.63e-06  |g|=    0  |ddm|= 0.0138
    CPU time for cycle= 4      0.01 sec, wall time      0.00 sec
diis-norm(errvec)=0.00194372
diis-c [-1.25646785e-07 -1.02014448e-02 -4.39311944e-03 -1.23974738e-02
  1.02699204e+00]
l = 0  e_0 = -11.4934522
l = 0  e_1 = -0.788843543
l = 0  e_2 = 0.0224763378
l = 0  e_3 = 0.157723289
l = 0  e_4 = 0.948073938
l = 0  e_5 = 12.7685706
l = 1  e_0 = -0.133202547
l = 1  e_1 = 0.0271585666
l = 1  e_2 = 0.153298525
l = 1  e_3 = 0.773051523
l = 1  e_4 = 10.3379341
l = 2  e_0 = 0.134312469
l = 2  e_1 = 0.507361129
l = 2  e_2 = 1.66380029
l = 0  occ = 2 + 0
l = 1  occ = 0 + 0.6667
l = 2  occ = 0 + 0
l = 3  occ = 0 + 0
E1 = -49.847479993892364  E_coul = 12.507737674287082
cycle= 5 E= -37.3397423196053  delta_E= -9.28e-07  |g|=    0  |ddm|= 0.00423
    CPU time for cycle= 5      0.01 sec, wall time      0.00 sec
diis-norm(errvec)=0.000198342
diis-c [-4.63563665e-10  5.14836372e-04 -7.67246640e-04  1.13944930e-02
 -2.53640142e-01  1.24249806e+00]
l = 0  e_0 = -11.4935899
l = 0  e_1 = -0.78896284
l = 0  e_2 = 0.0224629181
l = 0  e_3 = 0.15768263
l = 0  e_4 = 0.947972139
l = 0  e_5 = 12.7684319
l = 1  e_0 = -0.133273153
l = 1  e_1 = 0.0271540226
l = 1  e_2 = 0.153265592
l = 1  e_3 = 0.772958078
l = 1  e_4 = 10.3377983
l = 2  e_0 = 0.134295505
l = 2  e_1 = 0.507300842
l = 2  e_2 = 1.66369021
l = 0  occ = 2 + 0
l = 1  occ = 0 + 0.6667
l = 2  occ = 0 + 0
l = 3  occ = 0 + 0
E1 = -49.84782567706525  E_coul = 12.50808334730789
cycle= 6 E= -37.3397423297574  delta_E= -1.02e-08  |g|=    0  |ddm|= 0.000538
    CPU time for cycle= 6      0.01 sec, wall time      0.00 sec
diis-norm(errvec)=4.03165e-06
diis-c [-2.03185657e-12 -5.12820730e-05  1.39971068e-04 -1.93519653e-03
  3.91495174e-02 -2.16803803e-01  1.17950079e+00]
l = 0  e_0 = -11.4935914
l = 0  e_1 = -0.788964748
l = 0  e_2 = 0.0224625348
l = 0  e_3 = 0.157682233
l = 0  e_4 = 0.947971158
l = 0  e_5 = 12.7684304
l = 1  e_0 = -0.133274217
l = 1  e_1 = 0.0271540562
l = 1  e_2 = 0.153265275
l = 1  e_3 = 0.772957088
l = 1  e_4 = 10.3377968
l = 2  e_0 = 0.134295118
l = 2  e_1 = 0.507300136
l = 2  e_2 = 1.66368901
l = 0  occ = 2 + 0
l = 1  occ = 0 + 0.6667
l = 2  occ = 0 + 0
l = 3  occ = 0 + 0
E1 = -49.84782271814111  E_coul = 12.508080388357438
cycle= 7 E= -37.3397423297837  delta_E= -2.63e-11  |g|=    0  |ddm|= 8.38e-06
    CPU time for cycle= 7      0.01 sec, wall time      0.00 sec
diis-norm(errvec)=2.2601e-07
diis-c [-8.13360424e-16 -5.22367015e-07 -6.19188090e-06  8.56168396e-05
 -1.30069125e-03  7.68175486e-03 -7.53667793e-02  1.06890681e+00]
l = 0  e_0 = -11.4935916
l = 0  e_1 = -0.788964871
l = 0  e_2 = 0.022462503
l = 0  e_3 = 0.157682179
l = 0  e_4 = 0.947971032
l = 0  e_5 = 12.7684303
l = 1  e_0 = -0.133274311
l = 1  e_1 = 0.0271540413
l = 1  e_2 = 0.153265218
l = 1  e_3 = 0.772956976
l = 1  e_4 = 10.3377966
l = 2  e_0 = 0.134295081
l = 2  e_1 = 0.507300051
l = 2  e_2 = 1.66368887
l = 0  occ = 2 + 0
l = 1  occ = 0 + 0.6667
l = 2  occ = 0 + 0
l = 3  occ = 0 + 0
E1 = -49.84782320234339  E_coul = 12.508080872559686
cycle= 8 E= -37.3397423297837  delta_E= -2.84e-14  |g|=    0  |ddm|= 3.48e-07
    CPU time for cycle= 8      0.00 sec, wall time      0.00 sec
diis-norm(errvec)=9.32467e-09
Linear dependence found in DIIS error vectors.
diis-c [-9.75224416e-16 -3.28001325e-07 -2.89759630e-06  3.92994212e-05
 -5.81775552e-04  3.46374619e-03 -3.45381621e-02  4.97016325e-01
  5.34603792e-01]
l = 0  e_0 = -11.4935916
l = 0  e_1 = -0.788964867
l = 0  e_2 = 0.0224625034
l = 0  e_3 = 0.15768218
l = 0  e_4 = 0.947971035
l = 0  e_5 = 12.7684303
l = 1  e_0 = -0.133274307
l = 1  e_1 = 0.0271540413
l = 1  e_2 = 0.153265218
l = 1  e_3 = 0.772956979
l = 1  e_4 = 10.3377966
l = 2  e_0 = 0.134295082
l = 2  e_1 = 0.507300053
l = 2  e_2 = 1.66368888
l = 0  occ = 2 + 0
l = 1  occ = 0 + 0.6667
l = 2  occ = 0 + 0
l = 3  occ = 0 + 0
E1 = -49.84782319880177  E_coul = 12.508080869018046
cycle= 9 E= -37.3397423297837  delta_E= -2.13e-14  |g|=    0  |ddm|= 1.19e-08
    CPU time for cycle= 9      0.01 sec, wall time      0.00 sec
diis-norm(errvec)=4.79298e-09
Linear dependence found in DIIS error vectors.
diis-c [-9.79551905e-17  3.49282547e-01 -2.11243415e-06  2.92792070e-05
 -4.70087394e-04  2.72846884e-03 -2.45533696e-02  3.23806206e-01
  3.49179068e-01]
l = 0  e_0 = -11.4935916
l = 0  e_1 = -0.788964867
l = 0  e_2 = 0.0224625034
l = 0  e_3 = 0.15768218
l = 0  e_4 = 0.947971035
l = 0  e_5 = 12.7684303
l = 1  e_0 = -0.133274306
l = 1  e_1 = 0.0271540412
l = 1  e_2 = 0.153265218
l = 1  e_3 = 0.772956979
l = 1  e_4 = 10.3377966
l = 2  e_0 = 0.134295082
l = 2  e_1 = 0.507300053
l = 2  e_2 = 1.66368888
l = 0  occ = 2 + 0
l = 1  occ = 0 + 0.6667
l = 2  occ = 0 + 0
l = 3  occ = 0 + 0
E1 = -49.84782320301522  E_coul = 12.508080873231451
cycle= 10 E= -37.3397423297838  delta_E= -4.26e-14  |g|=    0  |ddm|= 1.29e-09
    CPU time for cycle= 10      0.01 sec, wall time      0.00 sec
diis-norm(errvec)=5.26694e-09
Linear dependence found in DIIS error vectors.
diis-c [-1.57052331e-16  2.55294603e-01  2.55283399e-01  3.76168344e-06
 -6.47728451e-05  4.17624720e-04 -1.04052489e-02  2.44136510e-01
  2.55334123e-01]
l = 0  e_0 = -11.4935916
l = 0  e_1 = -0.788964869
l = 0  e_2 = 0.0224625032
l = 0  e_3 = 0.157682179
l = 0  e_4 = 0.947971032
l = 0  e_5 = 12.7684303
l = 1  e_0 = -0.133274308
l = 1  e_1 = 0.0271540411
l = 1  e_2 = 0.153265217
l = 1  e_3 = 0.772956976
l = 1  e_4 = 10.3377966
l = 2  e_0 = 0.134295082
l = 2  e_1 = 0.507300052
l = 2  e_2 = 1.66368887
l = 0  occ = 2 + 0
l = 1  occ = 0 + 0.6667
l = 2  occ = 0 + 0
l = 3  occ = 0 + 0
E1 = -49.84782321207476  E_coul = 12.508080882291061
cycle= 11 E= -37.3397423297837  delta_E= 7.11e-14  |g|=    0  |ddm|= 1.04e-08
    CPU time for cycle= 11      0.01 sec, wall time      0.00 sec
diis-norm(errvec)=9.23974e-09
Linear dependence found in DIIS error vectors.
diis-c [ 9.09916570e-17  2.03239745e-01  2.03230096e-01  2.03186057e-01
 -3.59932168e-05  2.70230892e-04 -7.93403624e-03  1.94778011e-01
  2.03265889e-01]
l = 0  e_0 = -11.4935916
l = 0  e_1 = -0.78896487
l = 0  e_2 = 0.0224625033
l = 0  e_3 = 0.157682179
l = 0  e_4 = 0.947971032
l = 0  e_5 = 12.7684303
l = 1  e_0 = -0.133274308
l = 1  e_1 = 0.0271540412
l = 1  e_2 = 0.153265217
l = 1  e_3 = 0.772956976
l = 1  e_4 = 10.3377966
l = 2  e_0 = 0.134295082
l = 2  e_1 = 0.507300052
l = 2  e_2 = 1.66368887
l = 0  occ = 2 + 0
l = 1  occ = 0 + 0.6667
l = 2  occ = 0 + 0
l = 3  occ = 0 + 0
E1 = -49.847823218610955  E_coul = 12.508080888827187
cycle= 12 E= -37.3397423297838  delta_E= -7.11e-14  |g|=    0  |ddm|= 8.35e-09
    CPU time for cycle= 12      0.01 sec, wall time      0.00 sec
diis-norm(errvec)=1.23884e-08
Linear dependence found in DIIS error vectors.
diis-c [-2.44611222e-16  1.68199498e-01  1.68196245e-01  1.68171496e-01
  1.68143644e-01 -7.29445663e-05 -4.47704137e-03  1.63661947e-01
  1.68177156e-01]
l = 0  e_0 = -11.4935916
l = 0  e_1 = -0.78896487
l = 0  e_2 = 0.0224625033
l = 0  e_3 = 0.157682179
l = 0  e_4 = 0.947971032
l = 0  e_5 = 12.7684303
l = 1  e_0 = -0.133274308
l = 1  e_1 = 0.0271540412
l = 1  e_2 = 0.153265217
l = 1  e_3 = 0.772956976
l = 1  e_4 = 10.3377966
l = 2  e_0 = 0.134295082
l = 2  e_1 = 0.507300052
l = 2  e_2 = 1.66368887
l = 0  occ = 2 + 0
l = 1  occ = 0 + 0.6667
l = 2  occ = 0 + 0
l = 3  occ = 0 + 0
E1 = -49.847823219635075  E_coul = 12.508080889851394
cycle= 13 E= -37.3397423297837  delta_E= 8.53e-14  |g|=    0  |ddm|= 2.52e-09
    CPU time for cycle= 13      0.01 sec, wall time      0.00 sec
diis-norm(errvec)=1.30521e-08
Linear dependence found in DIIS error vectors.
diis-c [-5.00850632e-17  1.58301674e-01  1.58904613e-01  1.60431906e-01
  1.62081649e-01  1.62268526e-01 -9.12698051e-04  3.92038572e-02
  1.59720473e-01]
l = 0  e_0 = -11.4935916
l = 0  e_1 = -0.788964864
l = 0  e_2 = 0.0224625038
l = 0  e_3 = 0.157682181
l = 0  e_4 = 0.947971037
l = 0  e_5 = 12.7684303
l = 1  e_0 = -0.133274304
l = 1  e_1 = 0.0271540413
l = 1  e_2 = 0.153265218
l = 1  e_3 = 0.772956981
l = 1  e_4 = 10.3377966
l = 2  e_0 = 0.134295082
l = 2  e_1 = 0.507300055
l = 2  e_2 = 1.66368888
l = 0  occ = 2 + 0
l = 1  occ = 0 + 0.6667
l = 2  occ = 0 + 0
l = 3  occ = 0 + 0
E1 = -49.84782319840059  E_coul = 12.50808086861684
cycle= 14 E= -37.3397423297837  delta_E= -6.39e-14  |g|=    0  |ddm|= 2.69e-08
    CPU time for cycle= 14      0.01 sec, wall time      0.00 sec
diis-norm(errvec)=2.3107e-09
Linear dependence found in DIIS error vectors.
diis-c [1.36805350e-16 1.38138234e-01 1.38519333e-01 1.39698416e-01
 1.40733645e-01 1.40883936e-01 1.37568567e-01 2.52126746e-02
 1.39245195e-01]
l = 0  e_0 = -11.4935916
l = 0  e_1 = -0.788964862
l = 0  e_2 = 0.0224625039
l = 0  e_3 = 0.157682181
l = 0  e_4 = 0.947971038
l = 0  e_5 = 12.7684303
l = 1  e_0 = -0.133274303
l = 1  e_1 = 0.0271540413
l = 1  e_2 = 0.153265219
l = 1  e_3 = 0.772956982
l = 1  e_4 = 10.3377966
l = 2  e_0 = 0.134295082
l = 2  e_1 = 0.507300055
l = 2  e_2 = 1.66368888
l = 0  occ = 2 + 0
l = 1  occ = 0 + 0.6667
l = 2  occ = 0 + 0
l = 3  occ = 0 + 0
E1 = -49.847823195372435  E_coul = 12.508080865588697
cycle= 15 E= -37.3397423297837  delta_E= 7.11e-15  |g|=    0  |ddm|= 4.24e-09
    CPU time for cycle= 15      0.01 sec, wall time      0.00 sec
diis-norm(errvec)=9.0578e-10
Linear dependence found in DIIS error vectors.
diis-c [-3.83815955e-16  1.25000000e-01  1.25000000e-01  1.25000000e-01
  1.25000000e-01  1.25000000e-01  1.25000000e-01  1.25000000e-01
  1.25000000e-01]
l = 0  e_0 = -11.4935916
l = 0  e_1 = -0.788964861
l = 0  e_2 = 0.0224625039
l = 0  e_3 = 0.157682181
l = 0  e_4 = 0.947971039
l = 0  e_5 = 12.7684303
l = 1  e_0 = -0.133274302
l = 1  e_1 = 0.0271540413
l = 1  e_2 = 0.153265219
l = 1  e_3 = 0.772956983
l = 1  e_4 = 10.3377966
l = 2  e_0 = 0.134295082
l = 2  e_1 = 0.507300055
l = 2  e_2 = 1.66368888
l = 0  occ = 2 + 0
l = 1  occ = 0 + 0.6667
l = 2  occ = 0 + 0
l = 3  occ = 0 + 0
E1 = -49.847823189777415  E_coul = 12.50808085999368
cycle= 16 E= -37.3397423297837  delta_E= 7.11e-15  |g|=    0  |ddm|= 3.14e-09
    CPU time for cycle= 16      0.01 sec, wall time      0.00 sec
diis-norm(errvec)=1.82017e-09
Linear dependence found in DIIS error vectors.
diis-c [-3.83815955e-16  1.25000000e-01  1.25000000e-01  1.25000000e-01
  1.25000000e-01  1.25000000e-01  1.25000000e-01  1.25000000e-01
  1.25000000e-01]
l = 0  e_0 = -11.4935916
l = 0  e_1 = -0.788964861
l = 0  e_2 = 0.0224625039
l = 0  e_3 = 0.157682181
l = 0  e_4 = 0.947971039
l = 0  e_5 = 12.7684303
l = 1  e_0 = -0.133274302
l = 1  e_1 = 0.0271540413
l = 1  e_2 = 0.153265219
l = 1  e_3 = 0.772956983
l = 1  e_4 = 10.3377966
l = 2  e_0 = 0.134295082
l = 2  e_1 = 0.507300055
l = 2  e_2 = 1.66368888
l = 0  occ = 2 + 0
l = 1  occ = 0 + 0.6667
l = 2  occ = 0 + 0
l = 3  occ = 0 + 0
E1 = -49.84782319086829  E_coul = 12.508080861084544
cycle= 17 E= -37.3397423297837  delta_E= -1.42e-14  |g|=    0  |ddm|= 2.26e-10
    CPU time for cycle= 17      0.01 sec, wall time      0.00 sec
diis-norm(errvec)=1.49551e-09
Linear dependence found in DIIS error vectors.
diis-c [-2.89052492e-16  1.25000000e-01  1.25000000e-01  1.25000000e-01
  1.25000000e-01  1.25000000e-01  1.25000000e-01  1.25000000e-01
  1.25000000e-01]
l = 0  e_0 = -11.4935916
l = 0  e_1 = -0.788964861
l = 0  e_2 = 0.0224625039
l = 0  e_3 = 0.157682181
l = 0  e_4 = 0.947971039
l = 0  e_5 = 12.7684303
l = 1  e_0 = -0.133274302
l = 1  e_1 = 0.0271540413
l = 1  e_2 = 0.153265219
l = 1  e_3 = 0.772956983
l = 1  e_4 = 10.3377966
l = 2  e_0 = 0.134295082
l = 2  e_1 = 0.507300055
l = 2  e_2 = 1.66368888
l = 0  occ = 2 + 0
l = 1  occ = 0 + 0.6667
l = 2  occ = 0 + 0
l = 3  occ = 0 + 0
E1 = -49.84782319152987  E_coul = 12.508080861746175
cycle= 18 E= -37.3397423297837  delta_E= 4.97e-14  |g|=    0  |ddm|= 1.34e-10
    CPU time for cycle= 18      0.01 sec, wall time      0.00 sec
diis-norm(errvec)=1.29341e-09
Linear dependence found in DIIS error vectors.
diis-c [-2.89052492e-16  1.25000000e-01  1.25000000e-01  1.25000000e-01
  1.25000000e-01  1.25000000e-01  1.25000000e-01  1.25000000e-01
  1.25000000e-01]
l = 0  e_0 = -11.4935916
l = 0  e_1 = -0.788964861
l = 0  e_2 = 0.0224625039
l = 0  e_3 = 0.157682181
l = 0  e_4 = 0.947971039
l = 0  e_5 = 12.7684303
l = 1  e_0 = -0.133274302
l = 1  e_1 = 0.0271540413
l = 1  e_2 = 0.153265219
l = 1  e_3 = 0.772956982
l = 1  e_4 = 10.3377966
l = 2  e_0 = 0.134295082
l = 2  e_1 = 0.507300055
l = 2  e_2 = 1.66368888
l = 0  occ = 2 + 0
l = 1  occ = 0 + 0.6667
l = 2  occ = 0 + 0
l = 3  occ = 0 + 0
E1 = -49.84782319236609  E_coul = 12.508080862582384
cycle= 19 E= -37.3397423297837  delta_E= -1.42e-14  |g|=    0  |ddm|= 2.19e-10
    CPU time for cycle= 19      0.01 sec, wall time      0.00 sec
diis-norm(errvec)=1.02927e-09
Linear dependence found in DIIS error vectors.
diis-c [-2.89052492e-16  1.25000000e-01  1.25000000e-01  1.25000000e-01
  1.25000000e-01  1.25000000e-01  1.25000000e-01  1.25000000e-01
  1.25000000e-01]
l = 0  e_0 = -11.4935916
l = 0  e_1 = -0.788964862
l = 0  e_2 = 0.0224625039
l = 0  e_3 = 0.157682181
l = 0  e_4 = 0.947971038
l = 0  e_5 = 12.7684303
l = 1  e_0 = -0.133274302
l = 1  e_1 = 0.0271540413
l = 1  e_2 = 0.153265219
l = 1  e_3 = 0.772956982
l = 1  e_4 = 10.3377966
l = 2  e_0 = 0.134295082
l = 2  e_1 = 0.507300055
l = 2  e_2 = 1.66368888
l = 0  occ = 2 + 0
l = 1  occ = 0 + 0.6667
l = 2  occ = 0 + 0
l = 3  occ = 0 + 0
E1 = -49.84782319372696  E_coul = 12.508080863943244
cycle= 20 E= -37.3397423297837  delta_E= -7.11e-15  |g|=    0  |ddm|= 3.07e-10
    CPU time for cycle= 20      0.01 sec, wall time      0.00 sec
diis-norm(errvec)=6.18137e-10
Linear dependence found in DIIS error vectors.
diis-c [-2.89052492e-16  1.25000000e-01  1.25000000e-01  1.25000000e-01
  1.25000000e-01  1.25000000e-01  1.25000000e-01  1.25000000e-01
  1.25000000e-01]
l = 0  e_0 = -11.4935916
l = 0  e_1 = -0.788964862
l = 0  e_2 = 0.0224625039
l = 0  e_3 = 0.157682181
l = 0  e_4 = 0.947971038
l = 0  e_5 = 12.7684303
l = 1  e_0 = -0.133274303
l = 1  e_1 = 0.0271540413
l = 1  e_2 = 0.153265219
l = 1  e_3 = 0.772956982
l = 1  e_4 = 10.3377966
l = 2  e_0 = 0.134295082
l = 2  e_1 = 0.507300055
l = 2  e_2 = 1.66368888
l = 0  occ = 2 + 0
l = 1  occ = 0 + 0.6667
l = 2  occ = 0 + 0
l = 3  occ = 0 + 0
E1 = -49.84782319536821  E_coul = 12.508080865584512
cycle= 21 E= -37.3397423297837  delta_E= 2.13e-14  |g|=    0  |ddm|= 3.9e-10
    CPU time for cycle= 21      0.00 sec, wall time      0.00 sec
diis-norm(errvec)=3.19631e-10
Linear dependence found in DIIS error vectors.
diis-c [-2.89052492e-16  1.25000000e-01  1.25000000e-01  1.25000000e-01
  1.25000000e-01  1.25000000e-01  1.25000000e-01  1.25000000e-01
  1.25000000e-01]
l = 0  e_0 = -11.4935916
l = 0  e_1 = -0.788964862
l = 0  e_2 = 0.0224625039
l = 0  e_3 = 0.157682181
l = 0  e_4 = 0.947971038
l = 0  e_5 = 12.7684303
l = 1  e_0 = -0.133274303
l = 1  e_1 = 0.0271540413
l = 1  e_2 = 0.153265219
l = 1  e_3 = 0.772956982
l = 1  e_4 = 10.3377966
l = 2  e_0 = 0.134295082
l = 2  e_1 = 0.507300055
l = 2  e_2 = 1.66368888
l = 0  occ = 2 + 0
l = 1  occ = 0 + 0.6667
l = 2  occ = 0 + 0
l = 3  occ = 0 + 0
E1 = -49.84782319695562  E_coul = 12.508080867171865
cycle= 22 E= -37.3397423297838  delta_E= -6.39e-14  |g|=    0  |ddm|= 3.86e-10
    CPU time for cycle= 22      0.01 sec, wall time      0.00 sec
diis-norm(errvec)=6.0313e-10
Linear dependence found in DIIS error vectors.
diis-c [-2.89052492e-16  1.25000000e-01  1.25000000e-01  1.25000000e-01
  1.25000000e-01  1.25000000e-01  1.25000000e-01  1.25000000e-01
  1.25000000e-01]
l = 0  e_0 = -11.4935916
l = 0  e_1 = -0.788964862
l = 0  e_2 = 0.0224625039
l = 0  e_3 = 0.157682181
l = 0  e_4 = 0.947971038
l = 0  e_5 = 12.7684303
l = 1  e_0 = -0.133274303
l = 1  e_1 = 0.0271540413
l = 1  e_2 = 0.153265219
l = 1  e_3 = 0.772956982
l = 1  e_4 = 10.3377966
l = 2  e_0 = 0.134295082
l = 2  e_1 = 0.507300055
l = 2  e_2 = 1.66368888
l = 0  occ = 2 + 0
l = 1  occ = 0 + 0.6667
l = 2  occ = 0 + 0
l = 3  occ = 0 + 0
E1 = -49.847823197069815  E_coul = 12.508080867286095
cycle= 23 E= -37.3397423297837  delta_E= 4.26e-14  |g|=    0  |ddm|= 1.26e-10
    CPU time for cycle= 23      0.01 sec, wall time      0.00 sec
diis-norm(errvec)=6.08728e-10
Linear dependence found in DIIS error vectors.
diis-c [-2.89052492e-16  1.25000000e-01  1.25000000e-01  1.25000000e-01
  1.25000000e-01  1.25000000e-01  1.25000000e-01  1.25000000e-01
  1.25000000e-01]
l = 0  e_0 = -11.4935916
l = 0  e_1 = -0.788964862
l = 0  e_2 = 0.0224625039
l = 0  e_3 = 0.157682181
l = 0  e_4 = 0.947971038
l = 0  e_5 = 12.7684303
l = 1  e_0 = -0.133274303
l = 1  e_1 = 0.0271540413
l = 1  e_2 = 0.153265219
l = 1  e_3 = 0.772956982
l = 1  e_4 = 10.3377966
l = 2  e_0 = 0.134295082
l = 2  e_1 = 0.507300055
l = 2  e_2 = 1.66368888
l = 0  occ = 2 + 0
l = 1  occ = 0 + 0.6667
l = 2  occ = 0 + 0
l = 3  occ = 0 + 0
E1 = -49.84782319697081  E_coul = 12.508080867187074
cycle= 24 E= -37.3397423297837  delta_E= -1.42e-14  |g|=    0  |ddm|= 1.41e-10
    CPU time for cycle= 24      0.01 sec, wall time      0.00 sec
diis-norm(errvec)=5.57765e-10
Linear dependence found in DIIS error vectors.
diis-c [-2.89052492e-16  1.25000000e-01  1.25000000e-01  1.25000000e-01
  1.25000000e-01  1.25000000e-01  1.25000000e-01  1.25000000e-01
  1.25000000e-01]
l = 0  e_0 = -11.4935916
l = 0  e_1 = -0.788964862
l = 0  e_2 = 0.0224625039
l = 0  e_3 = 0.157682181
l = 0  e_4 = 0.947971038
l = 0  e_5 = 12.7684303
l = 1  e_0 = -0.133274303
l = 1  e_1 = 0.0271540413
l = 1  e_2 = 0.153265219
l = 1  e_3 = 0.772956982
l = 1  e_4 = 10.3377966
l = 2  e_0 = 0.134295082
l = 2  e_1 = 0.507300055
l = 2  e_2 = 1.66368888
l = 0  occ = 2 + 0
l = 1  occ = 0 + 0.6667
l = 2  occ = 0 + 0
l = 3  occ = 0 + 0
E1 = -49.847823196529234  E_coul = 12.5080808667455
cycle= 25 E= -37.3397423297837  delta_E=    0  |g|=    0  |ddm|= 3.5e-10
    CPU time for cycle= 25      0.01 sec, wall time      0.00 sec
diis-norm(errvec)=3.72186e-10
Linear dependence found in DIIS error vectors.
diis-c [-2.89052492e-16  1.25000000e-01  1.25000000e-01  1.25000000e-01
  1.25000000e-01  1.25000000e-01  1.25000000e-01  1.25000000e-01
  1.25000000e-01]
l = 0  e_0 = -11.4935916
l = 0  e_1 = -0.788964862
l = 0  e_2 = 0.0224625039
l = 0  e_3 = 0.157682181
l = 0  e_4 = 0.947971038
l = 0  e_5 = 12.7684303
l = 1  e_0 = -0.133274303
l = 1  e_1 = 0.0271540413
l = 1  e_2 = 0.153265219
l = 1  e_3 = 0.772956982
l = 1  e_4 = 10.3377966
l = 2  e_0 = 0.134295082
l = 2  e_1 = 0.507300055
l = 2  e_2 = 1.66368888
l = 0  occ = 2 + 0
l = 1  occ = 0 + 0.6667
l = 2  occ = 0 + 0
l = 3  occ = 0 + 0
E1 = -49.84782319617939  E_coul = 12.50808086639567
cycle= 26 E= -37.3397423297837  delta_E= 1.42e-14  |g|=    0  |ddm|= 2.84e-10
    CPU time for cycle= 26      0.01 sec, wall time      0.00 sec
diis-norm(errvec)=2.26122e-10
Linear dependence found in DIIS error vectors.
diis-c [-2.89052492e-16  1.25000000e-01  1.25000000e-01  1.25000000e-01
  1.25000000e-01  1.25000000e-01  1.25000000e-01  1.25000000e-01
  1.25000000e-01]
l = 0  e_0 = -11.4935916
l = 0  e_1 = -0.788964862
l = 0  e_2 = 0.0224625039
l = 0  e_3 = 0.157682181
l = 0  e_4 = 0.947971038
l = 0  e_5 = 12.7684303
l = 1  e_0 = -0.133274303
l = 1  e_1 = 0.0271540413
l = 1  e_2 = 0.153265219
l = 1  e_3 = 0.772956982
l = 1  e_4 = 10.3377966
l = 2  e_0 = 0.134295082
l = 2  e_1 = 0.507300055
l = 2  e_2 = 1.66368888
l = 0  occ = 2 + 0
l = 1  occ = 0 + 0.6667
l = 2  occ = 0 + 0
l = 3  occ = 0 + 0
E1 = -49.847823195890676  E_coul = 12.508080866106923
cycle= 27 E= -37.3397423297838  delta_E= -3.55e-14  |g|=    0  |ddm|= 2.45e-10
    CPU time for cycle= 27      0.01 sec, wall time      0.00 sec
diis-norm(errvec)=1.09933e-10
Linear dependence found in DIIS error vectors.
diis-c [-2.89052492e-16  1.25000000e-01  1.25000000e-01  1.25000000e-01
  1.25000000e-01  1.25000000e-01  1.25000000e-01  1.25000000e-01
  1.25000000e-01]
l = 0  e_0 = -11.4935916
l = 0  e_1 = -0.788964862
l = 0  e_2 = 0.0224625039
l = 0  e_3 = 0.157682181
l = 0  e_4 = 0.947971038
l = 0  e_5 = 12.7684303
l = 1  e_0 = -0.133274303
l = 1  e_1 = 0.0271540413
l = 1  e_2 = 0.153265219
l = 1  e_3 = 0.772956982
l = 1  e_4 = 10.3377966
l = 2  e_0 = 0.134295082
l = 2  e_1 = 0.507300055
l = 2  e_2 = 1.66368888
l = 0  occ = 2 + 0
l = 1  occ = 0 + 0.6667
l = 2  occ = 0 + 0
l = 3  occ = 0 + 0
E1 = -49.84782319567121  E_coul = 12.508080865887479
cycle= 28 E= -37.3397423297837  delta_E= 2.13e-14  |g|=    0  |ddm|= 2.03e-10
    CPU time for cycle= 28      0.00 sec, wall time      0.00 sec
diis-norm(errvec)=5.52235e-11
Linear dependence found in DIIS error vectors.
diis-c [-2.89052492e-16  1.25000000e-01  1.25000000e-01  1.25000000e-01
  1.25000000e-01  1.25000000e-01  1.25000000e-01  1.25000000e-01
  1.25000000e-01]
l = 0  e_0 = -11.4935916
l = 0  e_1 = -0.788964862
l = 0  e_2 = 0.0224625039
l = 0  e_3 = 0.157682181
l = 0  e_4 = 0.947971038
l = 0  e_5 = 12.7684303
l = 1  e_0 = -0.133274303
l = 1  e_1 = 0.0271540413
l = 1  e_2 = 0.153265219
l = 1  e_3 = 0.772956982
l = 1  e_4 = 10.3377966
l = 2  e_0 = 0.134295082
l = 2  e_1 = 0.507300055
l = 2  e_2 = 1.66368888
l = 0  occ = 2 + 0
l = 1  occ = 0 + 0.6667
l = 2  occ = 0 + 0
l = 3  occ = 0 + 0
E1 = -49.847823195550106  E_coul = 12.508080865766326
cycle= 29 E= -37.3397423297838  delta_E= -4.97e-14  |g|=    0  |ddm|= 1.37e-10
    CPU time for cycle= 29      0.01 sec, wall time      0.00 sec
diis-norm(errvec)=7.99981e-11
Linear dependence found in DIIS error vectors.
diis-c [-2.89052492e-16  1.25000000e-01  1.25000000e-01  1.25000000e-01
  1.25000000e-01  1.25000000e-01  1.25000000e-01  1.25000000e-01
  1.25000000e-01]
l = 0  e_0 = -11.4935916
l = 0  e_1 = -0.788964862
l = 0  e_2 = 0.0224625039
l = 0  e_3 = 0.157682181
l = 0  e_4 = 0.947971038
l = 0  e_5 = 12.7684303
l = 1  e_0 = -0.133274302
l = 1  e_1 = 0.0271540413
l = 1  e_2 = 0.153265219
l = 1  e_3 = 0.772956982
l = 1  e_4 = 10.3377966
l = 2  e_0 = 0.134295082
l = 2  e_1 = 0.507300055
l = 2  e_2 = 1.66368888
l = 0  occ = 2 + 0
l = 1  occ = 0 + 0.6667
l = 2  occ = 0 + 0
l = 3  occ = 0 + 0
E1 = -49.84782319553972  E_coul = 12.508080865755995
cycle= 30 E= -37.3397423297837  delta_E= 5.68e-14  |g|=    0  |ddm|= 5.71e-11
    CPU time for cycle= 30      0.01 sec, wall time      0.00 sec
l = 0  e_0 = -11.4935916
l = 0  e_1 = -0.788964862
l = 0  e_2 = 0.0224625039
l = 0  e_3 = 0.157682181
l = 0  e_4 = 0.947971038
l = 0  e_5 = 12.7684303
l = 1  e_0 = -0.133274303
l = 1  e_1 = 0.0271540413
l = 1  e_2 = 0.153265219
l = 1  e_3 = 0.772956982
l = 1  e_4 = 10.3377966
l = 2  e_0 = 0.134295082
l = 2  e_1 = 0.507300055
l = 2  e_2 = 1.66368888
l = 0  occ = 2 + 0
l = 1  occ = 0 + 0.6667
l = 2  occ = 0 + 0
l = 3  occ = 0 + 0
E1 = -49.84782319595338  E_coul = 12.508080866169683
Extra cycle  E= -37.3397423297837  delta_E= 2.84e-14  |g|=    0  |ddm|= 5.71e-11
    CPU time for scf_cycle      0.32 sec, wall time      0.11 sec
    CPU time for SCF      0.32 sec, wall time      0.11 sec
Atomic HF for atom  C  converged. SCF energy = -37.3397423297837

Atom C, E = -37.3397423298
Nelec from initial guess = (np.float64(3.0000000000000018), np.float64(3.0000000000000018))
E1 = -49.84782319595338  Ecoul = 12.508080866169685
init E= -37.3397423297837
    CPU time for initialize scf      0.36 sec, wall time      0.13 sec
alpha HOMO (B3u) = -0.133274302536048  LUMO (B1u) = -0.133274302536048
alpha irrep_nelec = [2, 0, 0, 0, 0, 0, 1]
beta  irrep_nelec = [2, 0, 0, 0, 0, 0, 0]
alpha-Ag nocc = 2  HOMO = -0.788964861949277  LUMO = 0.0224625039240297
   mo_energy = [-11.49359157  -0.78896486   0.0224625    0.13429508   0.13429508
   0.15768218   0.50730006   0.50730006   0.94797104   1.66368888
   1.66368888  12.76843027]
alpha-B1g nocc = 0
   mo_energy = [0.13429508 0.50730006 1.66368888]
alpha-B2g nocc = 0
   mo_energy = [0.13429508 0.50730006 1.66368888]
alpha-B3g nocc = 0
   mo_energy = [0.13429508 0.50730006 1.66368888]
alpha-B1u nocc = 0
   mo_energy = [-0.1332743   0.02715404  0.15326522  0.77295698 10.33779664]
alpha-B2u nocc = 0
   mo_energy = [-0.1332743   0.02715404  0.15326522  0.77295698 10.33779664]
alpha-B3u nocc = 1  HOMO = -0.133274302536048  LUMO = 0.0271540412854985

WARN: alpha-B3u HOMO -0.133274302536048 > system LUMO -0.133274302536048

   mo_energy = [-0.1332743   0.02715404  0.15326522  0.77295698 10.33779664]
beta-Ag nocc = 2  HOMO = -0.788964861949277  LUMO = 0.0224625039240297
   mo_energy = [-11.49359157  -0.78896486   0.0224625    0.13429508   0.13429508
   0.15768218   0.50730006   0.50730006   0.94797104   1.66368888
   1.66368888  12.76843027]
beta-B1g nocc = 0
   mo_energy = [0.13429508 0.50730006 1.66368888]
beta-B2g nocc = 0
   mo_energy = [0.13429508 0.50730006 1.66368888]
beta-B3g nocc = 0
   mo_energy = [0.13429508 0.50730006 1.66368888]
beta-B1u nocc = 0
   mo_energy = [-0.1332743   0.02715404  0.15326522  0.77295698 10.33779664]
beta-B2u nocc = 0
   mo_energy = [-0.1332743   0.02715404  0.15326522  0.77295698 10.33779664]
beta-B3u nocc = 0
   mo_energy = [-0.1332743   0.02715404  0.15326522  0.77295698 10.33779664]
multiplicity <S^2> = 0.75  2S+1 = 2
E1 = -46.757519180755175  Ecoul = 9.551051153526998
cycle= 1 E= -37.2064680272282  delta_E= 0.133  |g|= 0.257  |ddm|= 0.463
    CPU time for cycle= 1      0.04 sec, wall time      0.01 sec
diis-norm(errvec)=0.363708
diis-c [-0.1322835  1.       ]
alpha HOMO (B3u) = -0.903855348456311  LUMO (B1u) = -0.462863484707582
alpha irrep_nelec = [2, 0, 0, 0, 0, 0, 1]
beta  irrep_nelec = [2, 0, 0, 0, 0, 0, 0]
alpha-Ag nocc = 2  HOMO = -1.30329994352723  LUMO = -0.142199973117881
   mo_energy = [-12.16320391  -1.30329994  -0.14219997  -0.03890079  -0.03757593
  -0.03634892   0.20266726   0.21100246   0.55506408   1.20615309
   1.21462867  12.13871174]
alpha-B1g nocc = 0
   mo_energy = [-0.03774985  0.20433699  1.20784098]
alpha-B2g nocc = 0
   mo_energy = [-0.03774985  0.20433699  1.20784098]
alpha-B3g nocc = 0
   mo_energy = [-0.03757593  0.21100246  1.21462867]
alpha-B1u nocc = 0
   mo_energy = [-0.46286348 -0.09272679 -0.02942832  0.38569189  9.69703844]
alpha-B2u nocc = 0
   mo_energy = [-0.46286348 -0.09272679 -0.02942832  0.38569189  9.69703844]
alpha-B3u nocc = 1  HOMO = -0.903855348456311  LUMO = -0.0986267838120896
   mo_energy = [-0.90385535 -0.09862678 -0.03325538  0.36461446  9.68956531]
beta-Ag nocc = 2  HOMO = -1.20222837670476  LUMO = -0.13304099589258
   mo_energy = [-12.1476842   -1.20222838  -0.133041    -0.03656956  -0.03376855
  -0.02594894   0.21544294   0.24160098   0.57781788   1.22279394
   1.271672    12.15349888]
beta-B1g nocc = 0
   mo_energy = [-0.03023566  0.23505938  1.25900237]
beta-B2g nocc = 0
   mo_energy = [-0.03023566  0.23505938  1.25900237]
beta-B3g nocc = 0
   mo_energy = [-0.03656956  0.21544294  1.22279394]
beta-B1u nocc = 0
   mo_energy = [-0.43719265 -0.09108267 -0.02769341  0.39503772  9.70321769]
beta-B2u nocc = 0
   mo_energy = [-0.43719265 -0.09108267 -0.02769341  0.39503772  9.70321769]
beta-B3u nocc = 0
   mo_energy = [-0.3858629  -0.08440839 -0.01987845  0.42906056  9.73385321]
multiplicity <S^2> = 0.75198183  2S+1 = 2.0019809
E1 = -47.462395877822644  Ecoul = 10.1779243424742
cycle= 2 E= -37.2844715353484  delta_E= -0.078  |g|= 0.0718  |ddm|= 0.507
    CPU time for cycle= 2      0.04 sec, wall time      0.01 sec
diis-norm(errvec)=0.101531
diis-c [-0.00860345 -0.1330353   1.1330353 ]
alpha HOMO (B3u) = -0.899513972530732  LUMO (B1u) = -0.36510801847671
alpha irrep_nelec = [2, 0, 0, 0, 0, 0, 1]
beta  irrep_nelec = [2, 0, 0, 0, 0, 0, 0]
alpha-Ag nocc = 2  HOMO = -1.22563724044911  LUMO = -0.130260452931585
   mo_energy = [-11.91518368  -1.22563724  -0.13026045  -0.03277018  -0.03127701
  -0.02804652   0.23217531   0.23630851   0.61151306   1.27308087
   1.29413321  12.34971408]
alpha-B1g nocc = 0
   mo_energy = [-0.03093714  0.23268687  1.27724604]
alpha-B2g nocc = 0
   mo_energy = [-0.03093714  0.23268687  1.27724604]
alpha-B3g nocc = 0
   mo_energy = [-0.03277018  0.23630851  1.29413321]
alpha-B1u nocc = 0
   mo_energy = [-0.36510802 -0.08618499 -0.02095096  0.45408349  9.92267284]
alpha-B2u nocc = 0
   mo_energy = [-0.36510802 -0.08618499 -0.02095096  0.45408349  9.92267284]
alpha-B3u nocc = 1  HOMO = -0.899513972530732  LUMO = -0.0893289239050834
   mo_energy = [-0.89951397 -0.08932892 -0.02675059  0.40572371  9.9029089 ]
beta-Ag nocc = 2  HOMO = -1.0994283171482  LUMO = -0.126958033144376
   mo_energy = [-11.89034825  -1.09942832  -0.12695803  -0.03254254  -0.02875968
  -0.02360467   0.23854787   0.2623       0.63855416   1.30179861
   1.36288168  12.37241376]
beta-B1g nocc = 0
   mo_energy = [-0.02860226  0.25624577  1.34662271]
beta-B2g nocc = 0
   mo_energy = [-0.02860226  0.25624577  1.34662271]
beta-B3g nocc = 0
   mo_energy = [-0.03254254  0.23854787  1.30179861]
beta-B1u nocc = 0
   mo_energy = [-0.34068152 -0.08506295 -0.01912202  0.46562056  9.93207268]
beta-B2u nocc = 0
   mo_energy = [-0.34068152 -0.08506295 -0.01912202  0.46562056  9.93207268]
beta-B3u nocc = 0
   mo_energy = [-0.27848817 -0.07975919 -0.01009749  0.50872932  9.97803948]
multiplicity <S^2> = 0.75456477  2S+1 = 2.0045596
E1 = -47.53839831080628  Ecoul = 10.248062726138308
cycle= 3 E= -37.290335584668  delta_E= -0.00586  |g|= 0.0213  |ddm|= 0.151
    CPU time for cycle= 3      0.04 sec, wall time      0.01 sec
diis-norm(errvec)=0.0301602
diis-c [-2.86757786e-04  1.29942241e-02 -3.64559390e-01  1.35156517e+00]
alpha HOMO (B3u) = -0.909436416837682  LUMO (B2u) = -0.36233546285427
alpha irrep_nelec = [2, 0, 0, 0, 0, 0, 1]
beta  irrep_nelec = [2, 0, 0, 0, 0, 0, 0]
alpha-Ag nocc = 2  HOMO = -1.22362436772587  LUMO = -0.129881818880638
   mo_energy = [-11.91560031  -1.22362437  -0.12988182  -0.03251755  -0.03120719
  -0.02731547   0.23448005   0.23754533   0.6133678    1.27259347
   1.29632775  12.35091218]
alpha-B1g nocc = 0
   mo_energy = [-0.03058287  0.2347401   1.27725796]
alpha-B2g nocc = 0
   mo_energy = [-0.03058287  0.2347401   1.27725796]
alpha-B3g nocc = 0
   mo_energy = [-0.03251755  0.23754533  1.29632775]
alpha-B1u nocc = 0
   mo_energy = [-0.36233546 -0.08603807 -0.02070474  0.45549866  9.92356232]
alpha-B2u nocc = 0
   mo_energy = [-0.36233546 -0.08603807 -0.02070474  0.45549866  9.92356232]
alpha-B3u nocc = 1  HOMO = -0.909436416837682  LUMO = -0.0903696899799884
   mo_energy = [-0.90943642 -0.09036969 -0.02761398  0.40148936  9.90149127]
beta-Ag nocc = 2  HOMO = -1.0901081522607  LUMO = -0.126517711553562
   mo_energy = [-11.88809125  -1.09010815  -0.12651771  -0.03243948  -0.02857902
  -0.02346928   0.23860632   0.26199658   0.64342536   1.30322122
   1.36685313  12.37702063]
beta-B1g nocc = 0
   mo_energy = [-0.02875416  0.25598968  1.34981208]
beta-B2g nocc = 0
   mo_energy = [-0.02875416  0.25598968  1.34981208]
beta-B3g nocc = 0
   mo_energy = [-0.03243948  0.23860632  1.30322122]
beta-B1u nocc = 0
   mo_energy = [-0.33954557 -0.08484003 -0.01875329  0.46783136  9.93378845]
beta-B2u nocc = 0
   mo_energy = [-0.33954557 -0.08484003 -0.01875329  0.46783136  9.93378845]
beta-B3u nocc = 0
   mo_energy = [-2.73916384e-01 -7.94601049e-02 -9.40761531e-03  5.12733896e-01
  9.98271696e+00]
multiplicity <S^2> = 0.75602176  2S+1 = 2.0060127
E1 = -47.553373288927006  Ecoul = 10.262470170287056
cycle= 4 E= -37.2909031186399  delta_E= -0.000568  |g|= 0.00365  |ddm|= 0.0767
    CPU time for cycle= 4      0.04 sec, wall time      0.01 sec
diis-norm(errvec)=0.00516085
diis-c [-7.74051016e-06  1.85601766e-04  6.35993606e-02 -3.59346612e-01
  1.29556165e+00]
alpha HOMO (B3u) = -0.911102577658369  LUMO (B1u) = -0.362873019508659
alpha irrep_nelec = [2, 0, 0, 0, 0, 0, 1]
beta  irrep_nelec = [2, 0, 0, 0, 0, 0, 0]
alpha-Ag nocc = 2  HOMO = -1.22452758402242  LUMO = -0.129954426354985
   mo_energy = [-11.91658325  -1.22452758  -0.12995443  -0.03251041  -0.03123763
  -0.02738348   0.23457371   0.23752229   0.61292721   1.27186667
   1.29582951  12.34990044]
alpha-B1g nocc = 0
   mo_energy = [-0.03061852  0.23481695  1.27659423]
alpha-B2g nocc = 0
   mo_energy = [-0.03061852  0.23481695  1.27659423]
alpha-B3g nocc = 0
   mo_energy = [-0.03251041  0.23752229  1.29582951]
alpha-B1u nocc = 0
   mo_energy = [-0.36287302 -0.08606969 -0.02075634  0.45510366  9.92306284]
alpha-B2u nocc = 0
   mo_energy = [-0.36287302 -0.08606969 -0.02075634  0.45510366  9.92306284]
alpha-B3u nocc = 1  HOMO = -0.911102577658369  LUMO = -0.0905685093555358
   mo_energy = [-0.91110258 -0.09056851 -0.02781962  0.40034307  9.90034512]
beta-Ag nocc = 2  HOMO = -1.08878914692203  LUMO = -0.126441381655012
   mo_energy = [-11.88765543  -1.08878915  -0.12644138  -0.03246154  -0.02858803
  -0.0234466    0.23832677   0.26157088   0.64391672   1.30284852
   1.36646318  12.37746059]
beta-B1g nocc = 0
   mo_energy = [-0.02880785  0.25560215  1.34943324]
beta-B2g nocc = 0
   mo_energy = [-0.02880785  0.25560215  1.34943324]
beta-B3g nocc = 0
   mo_energy = [-0.03246154  0.23832677  1.30284852]
beta-B1u nocc = 0
   mo_energy = [-0.34002251 -0.08482483 -0.01873259  0.46775344  9.93352617]
beta-B2u nocc = 0
   mo_energy = [-0.34002251 -0.08482483 -0.01873259  0.46775344  9.93352617]
beta-B3u nocc = 0
   mo_energy = [-2.74257019e-01 -7.94542790e-02 -9.38914798e-03  5.12745732e-01
  9.98284238e+00]
multiplicity <S^2> = 0.75624685  2S+1 = 2.0062371
E1 = -47.55452104142866  Ecoul = 10.26360269493091
cycle= 5 E= -37.2909183464977  delta_E= -1.52e-05  |g|= 0.000566  |ddm|= 0.0173
    CPU time for cycle= 5      0.04 sec, wall time      0.01 sec
diis-norm(errvec)=0.000799747
diis-c [-7.96035826e-08 -4.31450000e-07 -1.22981009e-02  7.89806483e-02
 -3.94707858e-01  1.32802574e+00]
alpha HOMO (B3u) = -0.911154553616139  LUMO (B1u) = -0.362708428899397
alpha irrep_nelec = [2, 0, 0, 0, 0, 0, 1]
beta  irrep_nelec = [2, 0, 0, 0, 0, 0, 0]
alpha-Ag nocc = 2  HOMO = -1.22455728631227  LUMO = -0.129943230814018
   mo_energy = [-11.91613715  -1.22455729  -0.12994323  -0.03249677  -0.03122855
  -0.02737557   0.23466363   0.23759269   0.61296584   1.2720254
   1.29598432  12.35025625]
alpha-B1g nocc = 0
   mo_energy = [-0.03060762  0.23490242  1.2767476 ]
alpha-B2g nocc = 0
   mo_energy = [-0.03060762  0.23490242  1.2767476 ]
alpha-B3g nocc = 0
   mo_energy = [-0.03249677  0.23759269  1.29598432]
alpha-B1u nocc = 0
   mo_energy = [-0.36270843 -0.08605852 -0.02074032  0.45524069  9.92358772]
alpha-B2u nocc = 0
   mo_energy = [-0.36270843 -0.08605852 -0.02074032  0.45524069  9.92358772]
alpha-B3u nocc = 1  HOMO = -0.911154553616139  LUMO = -0.0905340450575053
   mo_energy = [-0.91115455 -0.09053405 -0.02779354  0.400429    9.90083121]
beta-Ag nocc = 2  HOMO = -1.08830562551139  LUMO = -0.126418065076206
   mo_energy = [-11.88690791  -1.08830563  -0.12641807  -0.03245391  -0.02858267
  -0.02342902   0.23836367   0.26157133   0.64416561   1.30308299
   1.36665938  12.37813626]
beta-B1g nocc = 0
   mo_energy = [-0.02880953  0.25561146  1.34963823]
beta-B2g nocc = 0
   mo_energy = [-0.02880953  0.25561146  1.34963823]
beta-B3g nocc = 0
   mo_energy = [-0.03245391  0.23836367  1.30308299]
beta-B1u nocc = 0
   mo_energy = [-0.33976611 -0.08480315 -0.01869757  0.46797757  9.93409165]
beta-B2u nocc = 0
   mo_energy = [-0.33976611 -0.08480315 -0.01869757  0.46797757  9.93409165]
beta-B3u nocc = 0
   mo_energy = [-2.74100446e-01 -7.94399459e-02 -9.35482587e-03  5.12971775e-01
  9.98343893e+00]
multiplicity <S^2> = 0.75626142  2S+1 = 2.0062516
E1 = -47.55465806229188  Ecoul = 10.263739416344343
cycle= 6 E= -37.2909186459475  delta_E= -2.99e-07  |g|= 5.01e-05  |ddm|= 0.0024
    CPU time for cycle= 6      0.04 sec, wall time      0.01 sec
diis-norm(errvec)=7.0863e-05
diis-c [-3.43698312e-10 -7.47388811e-05  2.74853953e-03 -1.65183838e-02
  8.66753914e-02 -3.46235082e-01  1.27340427e+00]
alpha HOMO (B3u) = -0.911130408559891  LUMO (B1u) = -0.362726557261562
alpha irrep_nelec = [2, 0, 0, 0, 0, 0, 1]
beta  irrep_nelec = [2, 0, 0, 0, 0, 0, 0]
alpha-Ag nocc = 2  HOMO = -1.2245903372796  LUMO = -0.129946911771574
   mo_energy = [-11.91618761  -1.22459034  -0.12994691  -0.03249789  -0.03122973
  -0.02737801   0.23466103   0.23758905   0.61294582   1.27201332
   1.29596703  12.35020938]
alpha-B1g nocc = 0
   mo_energy = [-0.03060822  0.23489986  1.27673521]
alpha-B2g nocc = 0
   mo_energy = [-0.03060822  0.23489986  1.27673521]
alpha-B3g nocc = 0
   mo_energy = [-0.03249789  0.23758905  1.29596703]
alpha-B1u nocc = 0
   mo_energy = [-0.36272656 -0.0860605  -0.02074316  0.45522437  9.92354801]
alpha-B2u nocc = 0
   mo_energy = [-0.36272656 -0.0860605  -0.02074316  0.45522437  9.92354801]
alpha-B3u nocc = 1  HOMO = -0.911130408559891  LUMO = -0.0905397492935808
   mo_energy = [-0.91113041 -0.09053975 -0.02779766  0.40042273  9.90080047]
beta-Ag nocc = 2  HOMO = -1.08831118473595  LUMO = -0.1264183035481
   mo_energy = [-11.88694328  -1.08831118  -0.1264183   -0.03245521  -0.02858323
  -0.02342877   0.23835792   0.26156605   0.64416201   1.30307085
   1.36664333  12.37810814]
beta-B1g nocc = 0
   mo_energy = [-0.02880995  0.25560625  1.34962369]
beta-B2g nocc = 0
   mo_energy = [-0.02880995  0.25560625  1.34962369]
beta-B3g nocc = 0
   mo_energy = [-0.03245521  0.23835792  1.30307085]
beta-B1u nocc = 0
   mo_energy = [-0.33977862 -0.08480417 -0.01869913  0.46796647  9.93405302]
beta-B2u nocc = 0
   mo_energy = [-0.33977862 -0.08480417 -0.01869913  0.46796647  9.93405302]
beta-B3u nocc = 0
   mo_energy = [-2.74122034e-01 -7.94407977e-02 -9.35685124e-03  5.12958339e-01
  9.98339509e+00]
multiplicity <S^2> = 0.75626162  2S+1 = 2.0062518
E1 = -47.554680588011365  Ecoul = 10.263761939834733
cycle= 7 E= -37.2909186481766  delta_E= -2.23e-09  |g|= 2.1e-06  |ddm|= 0.000204
    CPU time for cycle= 7      0.04 sec, wall time      0.01 sec
diis-norm(errvec)=2.97015e-06
diis-c [-1.59946926e-12  1.19348733e-05 -2.71860672e-04  1.50964925e-03
 -8.04286302e-03  3.44926876e-02 -1.53041850e-01  1.12534230e+00]
alpha HOMO (B3u) = -0.911132017861261  LUMO (B1u) = -0.362725244883566
alpha irrep_nelec = [2, 0, 0, 0, 0, 0, 1]
beta  irrep_nelec = [2, 0, 0, 0, 0, 0, 0]
alpha-Ag nocc = 2  HOMO = -1.22458988035993  LUMO = -0.129946610798341
   mo_energy = [-11.91618583  -1.22458988  -0.12994661  -0.03249776  -0.0312296
  -0.02737766   0.23466162   0.23758958   0.61294657   1.27201451
   1.2959682   12.35021108]
alpha-B1g nocc = 0
   mo_energy = [-0.03060798  0.2349004   1.27673629]
alpha-B2g nocc = 0
   mo_energy = [-0.03060798  0.2349004   1.27673629]
alpha-B3g nocc = 0
   mo_energy = [-0.03249776  0.23758958  1.2959682 ]
alpha-B1u nocc = 0
   mo_energy = [-0.36272524 -0.08606039 -0.02074299  0.45522532  9.9235501 ]
alpha-B2u nocc = 0
   mo_energy = [-0.36272524 -0.08606039 -0.02074299  0.45522532  9.9235501 ]
alpha-B3u nocc = 1  HOMO = -0.911132017861261  LUMO = -0.0905391056106474
   mo_energy = [-0.91113202 -0.09053911 -0.0277971   0.4004241   9.90080242]
beta-Ag nocc = 2  HOMO = -1.08830911416253  LUMO = -0.126418220483543
   mo_energy = [-11.88694057  -1.08830911  -0.12641822  -0.0324551   -0.02858317
  -0.02342867   0.23835841   0.26156665   0.6441632    1.30307207
   1.36664512  12.37811066]
beta-B1g nocc = 0
   mo_energy = [-0.02880989  0.2556068   1.34962526]
beta-B2g nocc = 0
   mo_energy = [-0.02880989  0.2556068   1.34962526]
beta-B3g nocc = 0
   mo_energy = [-0.0324551   0.23835841  1.30307207]
beta-B1u nocc = 0
   mo_energy = [-0.33977721 -0.08480408 -0.01869897  0.46796752  9.93405515]
beta-B2u nocc = 0
   mo_energy = [-0.33977721 -0.08480408 -0.01869897  0.46796752  9.93405515]
beta-B3u nocc = 0
   mo_energy = [-2.74120523e-01 -7.94407089e-02 -9.35662596e-03  5.12959672e-01
  9.98339745e+00]
multiplicity <S^2> = 0.75626175  2S+1 = 2.006252
E1 = -47.55467944253688  Ecoul = 10.263760794356752
cycle= 8 E= -37.2909186481801  delta_E= -3.5e-12  |g|= 2.01e-07  |ddm|= 4.9e-06
    CPU time for cycle= 8      0.03 sec, wall time      0.01 sec
diis-norm(errvec)=2.84584e-07
diis-c [-2.61560912e-14 -2.28055618e-06  4.88613125e-05 -2.62490129e-04
  1.40405153e-03 -6.09177688e-03  2.76169349e-02 -2.31308375e-01
  1.20859507e+00]
alpha HOMO (B3u) = -0.911131973037927  LUMO (B1u) = -0.36272530639512
alpha irrep_nelec = [2, 0, 0, 0, 0, 0, 1]
beta  irrep_nelec = [2, 0, 0, 0, 0, 0, 0]
alpha-Ag nocc = 2  HOMO = -1.22458999525668  LUMO = -0.12994662436606
   mo_energy = [-11.91618605  -1.22459     -0.12994662  -0.03249777  -0.0312296
  -0.02737768   0.23466158   0.23758956   0.61294651   1.27201444
   1.29596813  12.35021089]
alpha-B1g nocc = 0
   mo_energy = [-0.03060799  0.23490037  1.27673623]
alpha-B2g nocc = 0
   mo_energy = [-0.03060799  0.23490037  1.27673623]
alpha-B3g nocc = 0
   mo_energy = [-0.03249777  0.23758956  1.29596813]
alpha-B1u nocc = 0
   mo_energy = [-0.36272531 -0.0860604  -0.020743    0.45522525  9.92354993]
alpha-B2u nocc = 0
   mo_energy = [-0.36272531 -0.0860604  -0.020743    0.45522525  9.92354993]
alpha-B3u nocc = 1  HOMO = -0.911131973037927  LUMO = -0.0905391170719324
   mo_energy = [-0.91113197 -0.09053912 -0.02779712  0.40042408  9.90080227]
beta-Ag nocc = 2  HOMO = -1.08830922240302  LUMO = -0.126418219959079
   mo_energy = [-11.88694073  -1.08830922  -0.12641822  -0.03245511  -0.02858317
  -0.02342867   0.23835838   0.26156663   0.64416313   1.30307198
   1.36664504  12.3781105 ]
beta-B1g nocc = 0
   mo_energy = [-0.02880989  0.25560678  1.34962519]
beta-B2g nocc = 0
   mo_energy = [-0.02880989  0.25560678  1.34962519]
beta-B3g nocc = 0
   mo_energy = [-0.03245511  0.23835838  1.30307198]
beta-B1u nocc = 0
   mo_energy = [-0.33977731 -0.08480408 -0.01869898  0.46796744  9.93405497]
beta-B2u nocc = 0
   mo_energy = [-0.33977731 -0.08480408 -0.01869898  0.46796744  9.93405497]
beta-B3u nocc = 0
   mo_energy = [-2.74120584e-01 -7.94407101e-02 -9.35663085e-03  5.12959603e-01
  9.98339725e+00]
multiplicity <S^2> = 0.75626177  2S+1 = 2.006252
E1 = -47.55467934534201  Ecoul = 10.263760697161882
cycle= 9 E= -37.2909186481801  delta_E=    0  |g|= 2.59e-08  |ddm|= 4.21e-07
    CPU time for cycle= 9      0.04 sec, wall time      0.01 sec
diis-norm(errvec)=3.6613e-08
diis-c [-3.67959085e-16  1.13280900e+00  4.09029073e-07 -4.11934624e-06
  2.01600174e-05 -6.64767655e-05  1.41051843e-04  3.57366458e-03
 -1.36473687e-01]
alpha HOMO (B3u) = -0.911131982551382  LUMO (B1u) = -0.36272529876687
alpha irrep_nelec = [2, 0, 0, 0, 0, 0, 1]
beta  irrep_nelec = [2, 0, 0, 0, 0, 0, 0]
alpha-Ag nocc = 2  HOMO = -1.22458999640691  LUMO = -0.129946624669527
   mo_energy = [-11.91618604  -1.22459     -0.12994662  -0.03249776  -0.0312296
  -0.02737768   0.23466158   0.23758956   0.6129465    1.27201444
   1.29596813  12.3502109 ]
alpha-B1g nocc = 0
   mo_energy = [-0.03060799  0.23490037  1.27673623]
alpha-B2g nocc = 0
   mo_energy = [-0.03060799  0.23490037  1.27673623]
alpha-B3g nocc = 0
   mo_energy = [-0.03249776  0.23758956  1.29596813]
alpha-B1u nocc = 0
   mo_energy = [-0.3627253  -0.0860604  -0.020743    0.45522525  9.92354994]
alpha-B2u nocc = 0
   mo_energy = [-0.3627253  -0.0860604  -0.020743    0.45522525  9.92354994]
alpha-B3u nocc = 1  HOMO = -0.911131982551382  LUMO = -0.0905391158973167
   mo_energy = [-0.91113198 -0.09053912 -0.02779712  0.40042408  9.90080229]
beta-Ag nocc = 2  HOMO = -1.08830921353877  LUMO = -0.12641822052445
   mo_energy = [-11.88694072  -1.08830921  -0.12641822  -0.03245511  -0.02858317
  -0.02342867   0.23835838   0.26156663   0.64416314   1.30307199
   1.36664505  12.37811052]
beta-B1g nocc = 0
   mo_energy = [-0.02880989  0.25560678  1.34962519]
beta-B2g nocc = 0
   mo_energy = [-0.02880989  0.25560678  1.34962519]
beta-B3g nocc = 0
   mo_energy = [-0.03245511  0.23835838  1.30307199]
beta-B1u nocc = 0
   mo_energy = [-0.33977731 -0.08480408 -0.01869898  0.46796744  9.93405498]
beta-B2u nocc = 0
   mo_energy = [-0.33977731 -0.08480408 -0.01869898  0.46796744  9.93405498]
beta-B3u nocc = 0
   mo_energy = [-2.74120574e-01 -7.94407095e-02 -9.35662962e-03  5.12959610e-01
  9.98339726e+00]
multiplicity <S^2> = 0.75626177  2S+1 = 2.006252
E1 = -47.55467934343318  Ecoul = 10.263760695253037
cycle= 10 E= -37.2909186481801  delta_E= -1.42e-14  |g|= 2.81e-09  |ddm|= 5.77e-08
    CPU time for cycle= 10      0.03 sec, wall time      0.01 sec
diis-norm(errvec)=3.97795e-09
Linear dependence found in DIIS error vectors.
diis-c [-1.80288844e-16  4.95537503e-01  5.66382572e-01 -6.97141839e-07
  3.11527237e-06 -7.30968391e-06 -9.15221055e-06  1.72629315e-03
 -6.36323241e-02]
alpha HOMO (B3u) = -0.911131983096774  LUMO (B1u) = -0.362725298403129
alpha irrep_nelec = [2, 0, 0, 0, 0, 0, 1]
beta  irrep_nelec = [2, 0, 0, 0, 0, 0, 0]
alpha-Ag nocc = 2  HOMO = -1.2245899965277  LUMO = -0.129946624604929
   mo_energy = [-11.91618604  -1.22459     -0.12994662  -0.03249776  -0.0312296
  -0.02737768   0.23466158   0.23758956   0.6129465    1.27201444
   1.29596813  12.3502109 ]
alpha-B1g nocc = 0
   mo_energy = [-0.03060799  0.23490037  1.27673623]
alpha-B2g nocc = 0
   mo_energy = [-0.03060799  0.23490037  1.27673623]
alpha-B3g nocc = 0
   mo_energy = [-0.03249776  0.23758956  1.29596813]
alpha-B1u nocc = 0
   mo_energy = [-0.3627253  -0.0860604  -0.020743    0.45522525  9.92354994]
alpha-B2u nocc = 0
   mo_energy = [-0.3627253  -0.0860604  -0.020743    0.45522525  9.92354994]
alpha-B3u nocc = 1  HOMO = -0.911131983096774  LUMO = -0.0905391157407726
   mo_energy = [-0.91113198 -0.09053912 -0.02779712  0.40042408  9.90080229]
beta-Ag nocc = 2  HOMO = -1.08830921302322  LUMO = -0.126418220499655
   mo_energy = [-11.88694072  -1.08830921  -0.12641822  -0.03245511  -0.02858317
  -0.02342867   0.23835838   0.26156663   0.64416314   1.30307199
   1.36664505  12.37811052]
beta-B1g nocc = 0
   mo_energy = [-0.02880989  0.25560678  1.34962519]
beta-B2g nocc = 0
   mo_energy = [-0.02880989  0.25560678  1.34962519]
beta-B3g nocc = 0
   mo_energy = [-0.03245511  0.23835838  1.30307199]
beta-B1u nocc = 0
   mo_energy = [-0.33977731 -0.08480408 -0.01869898  0.46796744  9.93405498]
beta-B2u nocc = 0
   mo_energy = [-0.33977731 -0.08480408 -0.01869898  0.46796744  9.93405498]
beta-B3u nocc = 0
   mo_energy = [-2.74120573e-01 -7.94407094e-02 -9.35662958e-03  5.12959610e-01
  9.98339726e+00]
multiplicity <S^2> = 0.75626177  2S+1 = 2.006252
E1 = -47.55467934270767  Ecoul = 10.26376069452753
cycle= 11 E= -37.2909186481801  delta_E=    0  |g|= 1.56e-09  |ddm|= 2.59e-09
    CPU time for cycle= 11      0.04 sec, wall time      0.01 sec
diis-norm(errvec)=2.20076e-09
Linear dependence found in DIIS error vectors.
diis-c [ 3.39411563e-17  3.20794260e-01  3.57808590e-01  3.58977839e-01
 -1.84347758e-06  1.17580504e-05 -5.07952335e-05  6.17538612e-04
 -3.81573472e-02]
alpha HOMO (B3u) = -0.911131983170934  LUMO (B1u) = -0.362725299208964
alpha irrep_nelec = [2, 0, 0, 0, 0, 0, 1]
beta  irrep_nelec = [2, 0, 0, 0, 0, 0, 0]
alpha-Ag nocc = 2  HOMO = -1.22458999732133  LUMO = -0.129946624676932
   mo_energy = [-11.91618604  -1.22459     -0.12994662  -0.03249776  -0.0312296
  -0.02737768   0.23466158   0.23758956   0.6129465    1.27201444
   1.29596813  12.35021089]
alpha-B1g nocc = 0
   mo_energy = [-0.03060799  0.23490037  1.27673623]
alpha-B2g nocc = 0
   mo_energy = [-0.03060799  0.23490037  1.27673623]
alpha-B3g nocc = 0
   mo_energy = [-0.03249776  0.23758956  1.29596813]
alpha-B1u nocc = 0
   mo_energy = [-0.3627253  -0.0860604  -0.020743    0.45522525  9.92354994]
alpha-B2u nocc = 0
   mo_energy = [-0.3627253  -0.0860604  -0.020743    0.45522525  9.92354994]
alpha-B3u nocc = 1  HOMO = -0.911131983170934  LUMO = -0.0905391157658571
   mo_energy = [-0.91113198 -0.09053912 -0.02779712  0.40042408  9.90080229]
beta-Ag nocc = 2  HOMO = -1.08830921386459  LUMO = -0.126418220539458
   mo_energy = [-11.88694072  -1.08830921  -0.12641822  -0.03245511  -0.02858317
  -0.02342867   0.23835838   0.26156663   0.64416314   1.30307199
   1.36664505  12.37811051]
beta-B1g nocc = 0
   mo_energy = [-0.02880989  0.25560678  1.34962519]
beta-B2g nocc = 0
   mo_energy = [-0.02880989  0.25560678  1.34962519]
beta-B3g nocc = 0
   mo_energy = [-0.03245511  0.23835838  1.30307199]
beta-B1u nocc = 0
   mo_energy = [-0.33977731 -0.08480408 -0.01869898  0.46796744  9.93405498]
beta-B2u nocc = 0
   mo_energy = [-0.33977731 -0.08480408 -0.01869898  0.46796744  9.93405498]
beta-B3u nocc = 0
   mo_energy = [-2.74120574e-01 -7.94407095e-02 -9.35662970e-03  5.12959609e-01
  9.98339726e+00]
multiplicity <S^2> = 0.75626177  2S+1 = 2.006252
E1 = -47.55467934172138  Ecoul = 10.263760693541236
cycle= 12 E= -37.2909186481801  delta_E= -7.11e-15  |g|= 1.31e-09  |ddm|= 2.36e-09
    CPU time for cycle= 12      0.03 sec, wall time      0.01 sec
diis-norm(errvec)=1.85637e-09
Linear dependence found in DIIS error vectors.
diis-c [-1.75262162e-16  2.38537556e-01  2.61100919e-01  2.61837333e-01
  2.62389520e-01 -1.43816145e-06  2.55703408e-05 -3.92386446e-04
 -2.34970739e-02]
alpha HOMO (B3u) = -0.911131982973158  LUMO (B1u) = -0.362725299449102
alpha irrep_nelec = [2, 0, 0, 0, 0, 0, 1]
beta  irrep_nelec = [2, 0, 0, 0, 0, 0, 0]
alpha-Ag nocc = 2  HOMO = -1.22458999753595  LUMO = -0.129946624696427
   mo_energy = [-11.91618604  -1.22459     -0.12994662  -0.03249776  -0.0312296
  -0.02737768   0.23466158   0.23758956   0.6129465    1.27201444
   1.29596813  12.35021089]
alpha-B1g nocc = 0
   mo_energy = [-0.03060799  0.23490037  1.27673623]
alpha-B2g nocc = 0
   mo_energy = [-0.03060799  0.23490037  1.27673623]
alpha-B3g nocc = 0
   mo_energy = [-0.03249776  0.23758956  1.29596813]
alpha-B1u nocc = 0
   mo_energy = [-0.3627253  -0.0860604  -0.020743    0.45522525  9.92354994]
alpha-B2u nocc = 0
   mo_energy = [-0.3627253  -0.0860604  -0.020743    0.45522525  9.92354994]
alpha-B3u nocc = 1  HOMO = -0.911131982973158  LUMO = -0.0905391157566171
   mo_energy = [-0.91113198 -0.09053912 -0.02779712  0.40042408  9.90080229]
beta-Ag nocc = 2  HOMO = -1.08830921430014  LUMO = -0.126418220560935
   mo_energy = [-11.88694072  -1.08830921  -0.12641822  -0.03245511  -0.02858317
  -0.02342867   0.23835838   0.26156663   0.64416314   1.30307199
   1.36664505  12.37811051]
beta-B1g nocc = 0
   mo_energy = [-0.02880989  0.25560678  1.34962519]
beta-B2g nocc = 0
   mo_energy = [-0.02880989  0.25560678  1.34962519]
beta-B3g nocc = 0
   mo_energy = [-0.03245511  0.23835838  1.30307199]
beta-B1u nocc = 0
   mo_energy = [-0.33977731 -0.08480408 -0.01869898  0.46796744  9.93405498]
beta-B2u nocc = 0
   mo_energy = [-0.33977731 -0.08480408 -0.01869898  0.46796744  9.93405498]
beta-B3u nocc = 0
   mo_energy = [-2.74120574e-01 -7.94407095e-02 -9.35662975e-03  5.12959609e-01
  9.98339726e+00]
multiplicity <S^2> = 0.75626177  2S+1 = 2.006252
E1 = -47.55467934129777  Ecoul = 10.263760693117629
cycle= 13 E= -37.2909186481801  delta_E= 7.11e-15  |g|= 1.46e-09  |ddm|= 2.02e-09
    CPU time for cycle= 13      0.04 sec, wall time      0.01 sec
diis-norm(errvec)=2.06076e-09
Linear dependence found in DIIS error vectors.
diis-c [-5.69014621e-17  1.88840558e-01  2.06699296e-01  2.07285944e-01
  2.07724926e-01  2.07933914e-01  1.15004941e-05 -2.76867974e-04
 -1.82192708e-02]
alpha HOMO (B3u) = -0.911131982962929  LUMO (B1u) = -0.362725299363796
alpha irrep_nelec = [2, 0, 0, 0, 0, 0, 1]
beta  irrep_nelec = [2, 0, 0, 0, 0, 0, 0]
alpha-Ag nocc = 2  HOMO = -1.22458999747098  LUMO = -0.12994662468805
   mo_energy = [-11.91618604  -1.22459     -0.12994662  -0.03249776  -0.0312296
  -0.02737768   0.23466158   0.23758956   0.6129465    1.27201444
   1.29596813  12.35021089]
alpha-B1g nocc = 0
   mo_energy = [-0.03060799  0.23490037  1.27673623]
alpha-B2g nocc = 0
   mo_energy = [-0.03060799  0.23490037  1.27673623]
alpha-B3g nocc = 0
   mo_energy = [-0.03249776  0.23758956  1.29596813]
alpha-B1u nocc = 0
   mo_energy = [-0.3627253  -0.0860604  -0.020743    0.45522525  9.92354994]
alpha-B2u nocc = 0
   mo_energy = [-0.3627253  -0.0860604  -0.020743    0.45522525  9.92354994]
alpha-B3u nocc = 1  HOMO = -0.911131982962929  LUMO = -0.0905391157566789
   mo_energy = [-0.91113198 -0.09053912 -0.02779712  0.40042408  9.90080229]
beta-Ag nocc = 2  HOMO = -1.08830921427906  LUMO = -0.126418220559864
   mo_energy = [-11.88694072  -1.08830921  -0.12641822  -0.03245511  -0.02858317
  -0.02342867   0.23835838   0.26156663   0.64416314   1.30307199
   1.36664505  12.37811051]
beta-B1g nocc = 0
   mo_energy = [-0.02880989  0.25560678  1.34962519]
beta-B2g nocc = 0
   mo_energy = [-0.02880989  0.25560678  1.34962519]
beta-B3g nocc = 0
   mo_energy = [-0.03245511  0.23835838  1.30307199]
beta-B1u nocc = 0
   mo_energy = [-0.33977731 -0.08480408 -0.01869898  0.46796744  9.93405498]
beta-B2u nocc = 0
   mo_energy = [-0.33977731 -0.08480408 -0.01869898  0.46796744  9.93405498]
beta-B3u nocc = 0
   mo_energy = [-2.74120574e-01 -7.94407095e-02 -9.35662974e-03  5.12959609e-01
  9.98339726e+00]
multiplicity <S^2> = 0.75626177  2S+1 = 2.006252
E1 = -47.554679341344176  Ecoul = 10.263760693164024
cycle= 14 E= -37.2909186481802  delta_E= -1.42e-14  |g|= 1.32e-09  |ddm|= 2.22e-10
    CPU time for cycle= 14      0.03 sec, wall time      0.01 sec
diis-norm(errvec)=1.86047e-09
Linear dependence found in DIIS error vectors.
diis-c [-8.19569743e-17  1.54231840e-01  1.71683574e-01  1.72330640e-01
  1.72673152e-01  1.72821655e-01  1.72854868e-01 -8.03129399e-05
 -1.65154169e-02]
alpha HOMO (B3u) = -0.911131982952228  LUMO (B1u) = -0.362725299301558
alpha irrep_nelec = [2, 0, 0, 0, 0, 0, 1]
beta  irrep_nelec = [2, 0, 0, 0, 0, 0, 0]
alpha-Ag nocc = 2  HOMO = -1.2245899975195  LUMO = -0.129946624690251
   mo_energy = [-11.91618604  -1.22459     -0.12994662  -0.03249776  -0.0312296
  -0.02737768   0.23466158   0.23758956   0.6129465    1.27201444
   1.29596813  12.35021089]
alpha-B1g nocc = 0
   mo_energy = [-0.03060799  0.23490037  1.27673623]
alpha-B2g nocc = 0
   mo_energy = [-0.03060799  0.23490037  1.27673623]
alpha-B3g nocc = 0
   mo_energy = [-0.03249776  0.23758956  1.29596813]
alpha-B1u nocc = 0
   mo_energy = [-0.3627253  -0.0860604  -0.020743    0.45522525  9.92354994]
alpha-B2u nocc = 0
   mo_energy = [-0.3627253  -0.0860604  -0.020743    0.45522525  9.92354994]
alpha-B3u nocc = 1  HOMO = -0.911131982952228  LUMO = -0.0905391157577922
   mo_energy = [-0.91113198 -0.09053912 -0.02779712  0.40042408  9.90080229]
beta-Ag nocc = 2  HOMO = -1.08830921416032  LUMO = -0.126418220554376
   mo_energy = [-11.88694072  -1.08830921  -0.12641822  -0.03245511  -0.02858317
  -0.02342867   0.23835838   0.26156663   0.64416314   1.30307199
   1.36664505  12.37811051]
beta-B1g nocc = 0
   mo_energy = [-0.02880989  0.25560678  1.34962519]
beta-B2g nocc = 0
   mo_energy = [-0.02880989  0.25560678  1.34962519]
beta-B3g nocc = 0
   mo_energy = [-0.03245511  0.23835838  1.30307199]
beta-B1u nocc = 0
   mo_energy = [-0.33977731 -0.08480408 -0.01869898  0.46796744  9.93405498]
beta-B2u nocc = 0
   mo_energy = [-0.33977731 -0.08480408 -0.01869898  0.46796744  9.93405498]
beta-B3u nocc = 0
   mo_energy = [-2.74120574e-01 -7.94407095e-02 -9.35662973e-03  5.12959609e-01
  9.98339726e+00]
multiplicity <S^2> = 0.75626177  2S+1 = 2.006252
E1 = -47.55467934139671  Ecoul = 10.26376069321655
cycle= 15 E= -37.2909186481802  delta_E=    0  |g|= 1.16e-09  |ddm|= 1.01e-09
    CPU time for cycle= 15      0.03 sec, wall time      0.01 sec
diis-norm(errvec)=1.64088e-09
Linear dependence found in DIIS error vectors.
diis-c [ 2.27623757e-16  1.31236651e-01  1.46117920e-01  1.46654374e-01
  1.46878989e-01  1.46962277e-01  1.46994498e-01  1.47079621e-01
 -1.19243302e-02]
alpha HOMO (B3u) = -0.911131982998228  LUMO (B2u) = -0.362725299251641
alpha irrep_nelec = [2, 0, 0, 0, 0, 0, 1]
beta  irrep_nelec = [2, 0, 0, 0, 0, 0, 0]
alpha-Ag nocc = 2  HOMO = -1.2245899974407  LUMO = -0.129946624681891
   mo_energy = [-11.91618604  -1.22459     -0.12994662  -0.03249776  -0.0312296
  -0.02737768   0.23466158   0.23758956   0.6129465    1.27201444
   1.29596813  12.35021089]
alpha-B1g nocc = 0
   mo_energy = [-0.03060799  0.23490037  1.27673623]
alpha-B2g nocc = 0
   mo_energy = [-0.03060799  0.23490037  1.27673623]
alpha-B3g nocc = 0
   mo_energy = [-0.03249776  0.23758956  1.29596813]
alpha-B1u nocc = 0
   mo_energy = [-0.3627253  -0.0860604  -0.020743    0.45522525  9.92354994]
alpha-B2u nocc = 0
   mo_energy = [-0.3627253  -0.0860604  -0.020743    0.45522525  9.92354994]
alpha-B3u nocc = 1  HOMO = -0.911131982998228  LUMO = -0.0905391157635272
   mo_energy = [-0.91113198 -0.09053912 -0.02779712  0.40042408  9.90080229]
beta-Ag nocc = 2  HOMO = -1.08830921407337  LUMO = -0.126418220549844
   mo_energy = [-11.88694072  -1.08830921  -0.12641822  -0.03245511  -0.02858317
  -0.02342867   0.23835838   0.26156663   0.64416314   1.30307199
   1.36664505  12.37811051]
beta-B1g nocc = 0
   mo_energy = [-0.02880989  0.25560678  1.34962519]
beta-B2g nocc = 0
   mo_energy = [-0.02880989  0.25560678  1.34962519]
beta-B3g nocc = 0
   mo_energy = [-0.03245511  0.23835838  1.30307199]
beta-B1u nocc = 0
   mo_energy = [-0.33977731 -0.08480408 -0.01869898  0.46796744  9.93405498]
beta-B2u nocc = 0
   mo_energy = [-0.33977731 -0.08480408 -0.01869898  0.46796744  9.93405498]
beta-B3u nocc = 0
   mo_energy = [-2.74120574e-01 -7.94407095e-02 -9.35662973e-03  5.12959609e-01
  9.98339726e+00]
multiplicity <S^2> = 0.75626177  2S+1 = 2.006252
E1 = -47.55467934151655  Ecoul = 10.263760693336387
cycle= 16 E= -37.2909186481802  delta_E= -7.11e-15  |g|= 1.07e-09  |ddm|= 4.71e-10
    CPU time for cycle= 16      0.03 sec, wall time      0.01 sec
diis-norm(errvec)=1.51883e-09
Linear dependence found in DIIS error vectors.
diis-c [-3.83815955e-16  1.25000000e-01  1.25000000e-01  1.25000000e-01
  1.25000000e-01  1.25000000e-01  1.25000000e-01  1.25000000e-01
  1.25000000e-01]
alpha HOMO (B3u) = -0.911131983057635  LUMO (B2u) = -0.36272529916754
alpha irrep_nelec = [2, 0, 0, 0, 0, 0, 1]
beta  irrep_nelec = [2, 0, 0, 0, 0, 0, 0]
alpha-Ag nocc = 2  HOMO = -1.22458999714812  LUMO = -0.129946624650693
   mo_energy = [-11.91618604  -1.22459     -0.12994662  -0.03249776  -0.0312296
  -0.02737768   0.23466158   0.23758956   0.6129465    1.27201444
   1.29596813  12.35021089]
alpha-B1g nocc = 0
   mo_energy = [-0.03060799  0.23490037  1.27673623]
alpha-B2g nocc = 0
   mo_energy = [-0.03060799  0.23490037  1.27673623]
alpha-B3g nocc = 0
   mo_energy = [-0.03249776  0.23758956  1.29596813]
alpha-B1u nocc = 0
   mo_energy = [-0.3627253  -0.0860604  -0.020743    0.45522525  9.92354994]
alpha-B2u nocc = 0
   mo_energy = [-0.3627253  -0.0860604  -0.020743    0.45522525  9.92354994]
alpha-B3u nocc = 1  HOMO = -0.911131983057635  LUMO = -0.090539115776823
   mo_energy = [-0.91113198 -0.09053912 -0.02779712  0.40042408  9.90080229]
beta-Ag nocc = 2  HOMO = -1.0883092138562  LUMO = -0.126418220538028
   mo_energy = [-11.88694072  -1.08830921  -0.12641822  -0.03245511  -0.02858317
  -0.02342867   0.23835838   0.26156663   0.64416314   1.30307199
   1.36664505  12.37811051]
beta-B1g nocc = 0
   mo_energy = [-0.02880989  0.25560678  1.34962519]
beta-B2g nocc = 0
   mo_energy = [-0.02880989  0.25560678  1.34962519]
beta-B3g nocc = 0
   mo_energy = [-0.03245511  0.23835838  1.30307199]
beta-B1u nocc = 0
   mo_energy = [-0.33977731 -0.08480408 -0.01869898  0.46796744  9.93405498]
beta-B2u nocc = 0
   mo_energy = [-0.33977731 -0.08480408 -0.01869898  0.46796744  9.93405498]
beta-B3u nocc = 0
   mo_energy = [-2.74120574e-01 -7.94407095e-02 -9.35662972e-03  5.12959609e-01
  9.98339726e+00]
multiplicity <S^2> = 0.75626177  2S+1 = 2.006252
E1 = -47.55467934193268  Ecoul = 10.263760693752548
cycle= 17 E= -37.2909186481801  delta_E= 2.13e-14  |g|= 1.33e-09  |ddm|= 1.53e-09
    CPU time for cycle= 17      0.03 sec, wall time      0.01 sec
diis-norm(errvec)=1.87888e-09
Linear dependence found in DIIS error vectors.
diis-c [-2.89052492e-16  1.25000000e-01  1.25000000e-01  1.25000000e-01
  1.25000000e-01  1.25000000e-01  1.25000000e-01  1.25000000e-01
  1.25000000e-01]
alpha HOMO (B3u) = -0.911131983305558  LUMO (B1u) = -0.36272529905139
alpha irrep_nelec = [2, 0, 0, 0, 0, 0, 1]
beta  irrep_nelec = [2, 0, 0, 0, 0, 0, 0]
alpha-Ag nocc = 2  HOMO = -1.22458999739425  LUMO = -0.129946624667087
   mo_energy = [-11.91618604  -1.22459     -0.12994662  -0.03249776  -0.0312296
  -0.02737768   0.23466158   0.23758956   0.6129465    1.27201444
   1.29596813  12.35021089]
alpha-B1g nocc = 0
   mo_energy = [-0.03060799  0.23490037  1.27673623]
alpha-B2g nocc = 0
   mo_energy = [-0.03060799  0.23490037  1.27673623]
alpha-B3g nocc = 0
   mo_energy = [-0.03249776  0.23758956  1.29596813]
alpha-B1u nocc = 0
   mo_energy = [-0.3627253  -0.0860604  -0.020743    0.45522525  9.92354994]
alpha-B2u nocc = 0
   mo_energy = [-0.3627253  -0.0860604  -0.020743    0.45522525  9.92354994]
alpha-B3u nocc = 1  HOMO = -0.911131983305558  LUMO = -0.0905391157788132
   mo_energy = [-0.91113198 -0.09053912 -0.02779712  0.40042408  9.90080229]
beta-Ag nocc = 2  HOMO = -1.08830921371934  LUMO = -0.126418220531241
   mo_energy = [-11.88694072  -1.08830921  -0.12641822  -0.03245511  -0.02858317
  -0.02342867   0.23835838   0.26156663   0.64416314   1.30307199
   1.36664505  12.37811051]
beta-B1g nocc = 0
   mo_energy = [-0.02880989  0.25560678  1.34962519]
beta-B2g nocc = 0
   mo_energy = [-0.02880989  0.25560678  1.34962519]
beta-B3g nocc = 0
   mo_energy = [-0.03245511  0.23835838  1.30307199]
beta-B1u nocc = 0
   mo_energy = [-0.33977731 -0.08480408 -0.01869898  0.46796744  9.93405498]
beta-B2u nocc = 0
   mo_energy = [-0.33977731 -0.08480408 -0.01869898  0.46796744  9.93405498]
beta-B3u nocc = 0
   mo_energy = [-2.74120574e-01 -7.94407095e-02 -9.35662970e-03  5.12959609e-01
  9.98339726e+00]
multiplicity <S^2> = 0.75626177  2S+1 = 2.006252
E1 = -47.55467934180699  Ecoul = 10.263760693626843
cycle= 18 E= -37.2909186481801  delta_E= -7.11e-15  |g|= 4.21e-10  |ddm|= 2.33e-09
    CPU time for cycle= 18      0.04 sec, wall time      0.01 sec
diis-norm(errvec)=5.95257e-10
Linear dependence found in DIIS error vectors.
diis-c [-2.89052492e-16  1.25000000e-01  1.25000000e-01  1.25000000e-01
  1.25000000e-01  1.25000000e-01  1.25000000e-01  1.25000000e-01
  1.25000000e-01]
alpha HOMO (B3u) = -0.911131983315902  LUMO (B1u) = -0.362725299063416
alpha irrep_nelec = [2, 0, 0, 0, 0, 0, 1]
beta  irrep_nelec = [2, 0, 0, 0, 0, 0, 0]
alpha-Ag nocc = 2  HOMO = -1.22458999743217  LUMO = -0.129946624669741
   mo_energy = [-11.91618604  -1.22459     -0.12994662  -0.03249776  -0.0312296
  -0.02737768   0.23466158   0.23758956   0.6129465    1.27201444
   1.29596813  12.35021089]
alpha-B1g nocc = 0
   mo_energy = [-0.03060799  0.23490037  1.27673623]
alpha-B2g nocc = 0
   mo_energy = [-0.03060799  0.23490037  1.27673623]
alpha-B3g nocc = 0
   mo_energy = [-0.03249776  0.23758956  1.29596813]
alpha-B1u nocc = 0
   mo_energy = [-0.3627253  -0.0860604  -0.020743    0.45522525  9.92354994]
alpha-B2u nocc = 0
   mo_energy = [-0.3627253  -0.0860604  -0.020743    0.45522525  9.92354994]
alpha-B3u nocc = 1  HOMO = -0.911131983315902  LUMO = -0.0905391157790061
   mo_energy = [-0.91113198 -0.09053912 -0.02779712  0.40042408  9.90080229]
beta-Ag nocc = 2  HOMO = -1.088309213743  LUMO = -0.126418220532043
   mo_energy = [-11.88694072  -1.08830921  -0.12641822  -0.03245511  -0.02858317
  -0.02342867   0.23835838   0.26156663   0.64416314   1.30307199
   1.36664505  12.37811051]
beta-B1g nocc = 0
   mo_energy = [-0.02880989  0.25560678  1.34962519]
beta-B2g nocc = 0
   mo_energy = [-0.02880989  0.25560678  1.34962519]
beta-B3g nocc = 0
   mo_energy = [-0.03245511  0.23835838  1.30307199]
beta-B1u nocc = 0
   mo_energy = [-0.33977731 -0.08480408 -0.01869898  0.46796744  9.93405498]
beta-B2u nocc = 0
   mo_energy = [-0.33977731 -0.08480408 -0.01869898  0.46796744  9.93405498]
beta-B3u nocc = 0
   mo_energy = [-2.74120574e-01 -7.94407095e-02 -9.35662970e-03  5.12959609e-01
  9.98339726e+00]
multiplicity <S^2> = 0.75626177  2S+1 = 2.006252
E1 = -47.55467934175883  Ecoul = 10.263760693578687
cycle= 19 E= -37.2909186481801  delta_E= 7.11e-15  |g|= 3.57e-10  |ddm|= 1.92e-10
    CPU time for cycle= 19      0.04 sec, wall time      0.01 sec
diis-norm(errvec)=5.05447e-10
Linear dependence found in DIIS error vectors.
diis-c [-2.89052492e-16  1.25000000e-01  1.25000000e-01  1.25000000e-01
  1.25000000e-01  1.25000000e-01  1.25000000e-01  1.25000000e-01
  1.25000000e-01]
alpha HOMO (B3u) = -0.911131983314831  LUMO (B2u) = -0.362725299072775
alpha irrep_nelec = [2, 0, 0, 0, 0, 0, 1]
beta  irrep_nelec = [2, 0, 0, 0, 0, 0, 0]
alpha-Ag nocc = 2  HOMO = -1.22458999745304  LUMO = -0.129946624671402
   mo_energy = [-11.91618604  -1.22459     -0.12994662  -0.03249776  -0.0312296
  -0.02737768   0.23466158   0.23758956   0.6129465    1.27201444
   1.29596813  12.35021089]
alpha-B1g nocc = 0
   mo_energy = [-0.03060799  0.23490037  1.27673623]
alpha-B2g nocc = 0
   mo_energy = [-0.03060799  0.23490037  1.27673623]
alpha-B3g nocc = 0
   mo_energy = [-0.03249776  0.23758956  1.29596813]
alpha-B1u nocc = 0
   mo_energy = [-0.3627253  -0.0860604  -0.020743    0.45522525  9.92354994]
alpha-B2u nocc = 0
   mo_energy = [-0.3627253  -0.0860604  -0.020743    0.45522525  9.92354994]
alpha-B3u nocc = 1  HOMO = -0.911131983314831  LUMO = -0.090539115778919
   mo_energy = [-0.91113198 -0.09053912 -0.02779712  0.40042408  9.90080229]
beta-Ag nocc = 2  HOMO = -1.08830921376282  LUMO = -0.126418220532834
   mo_energy = [-11.88694072  -1.08830921  -0.12641822  -0.03245511  -0.02858317
  -0.02342867   0.23835838   0.26156663   0.64416314   1.30307199
   1.36664505  12.37811051]
beta-B1g nocc = 0
   mo_energy = [-0.02880989  0.25560678  1.34962519]
beta-B2g nocc = 0
   mo_energy = [-0.02880989  0.25560678  1.34962519]
beta-B3g nocc = 0
   mo_energy = [-0.03245511  0.23835838  1.30307199]
beta-B1u nocc = 0
   mo_energy = [-0.33977731 -0.08480408 -0.01869898  0.46796744  9.93405498]
beta-B2u nocc = 0
   mo_energy = [-0.33977731 -0.08480408 -0.01869898  0.46796744  9.93405498]
beta-B3u nocc = 0
   mo_energy = [-2.74120574e-01 -7.94407095e-02 -9.35662970e-03  5.12959609e-01
  9.98339726e+00]
multiplicity <S^2> = 0.75626177  2S+1 = 2.006252
E1 = -47.554679341726725  Ecoul = 10.263760693546603
cycle= 20 E= -37.2909186481801  delta_E= 1.42e-14  |g|= 3.38e-10  |ddm|= 1.08e-10
    CPU time for cycle= 20      0.04 sec, wall time      0.01 sec
diis-norm(errvec)=4.77494e-10
Linear dependence found in DIIS error vectors.
diis-c [-2.89052492e-16  1.25000000e-01  1.25000000e-01  1.25000000e-01
  1.25000000e-01  1.25000000e-01  1.25000000e-01  1.25000000e-01
  1.25000000e-01]
alpha HOMO (B3u) = -0.911131983320759  LUMO (B1u) = -0.362725299065924
alpha irrep_nelec = [2, 0, 0, 0, 0, 0, 1]
beta  irrep_nelec = [2, 0, 0, 0, 0, 0, 0]
alpha-Ag nocc = 2  HOMO = -1.22458999745696  LUMO = -0.129946624671339
   mo_energy = [-11.91618604  -1.22459     -0.12994662  -0.03249776  -0.0312296
  -0.02737768   0.23466158   0.23758956   0.6129465    1.27201444
   1.29596813  12.35021089]
alpha-B1g nocc = 0
   mo_energy = [-0.03060799  0.23490037  1.27673623]
alpha-B2g nocc = 0
   mo_energy = [-0.03060799  0.23490037  1.27673623]
alpha-B3g nocc = 0
   mo_energy = [-0.03249776  0.23758956  1.29596813]
alpha-B1u nocc = 0
   mo_energy = [-0.3627253  -0.0860604  -0.020743    0.45522525  9.92354994]
alpha-B2u nocc = 0
   mo_energy = [-0.3627253  -0.0860604  -0.020743    0.45522525  9.92354994]
alpha-B3u nocc = 1  HOMO = -0.911131983320759  LUMO = -0.0905391157792485
   mo_energy = [-0.91113198 -0.09053912 -0.02779712  0.40042408  9.90080229]
beta-Ag nocc = 2  HOMO = -1.08830921375784  LUMO = -0.126418220532511
   mo_energy = [-11.88694072  -1.08830921  -0.12641822  -0.03245511  -0.02858317
  -0.02342867   0.23835838   0.26156663   0.64416314   1.30307199
   1.36664505  12.37811051]
beta-B1g nocc = 0
   mo_energy = [-0.02880989  0.25560678  1.34962519]
beta-B2g nocc = 0
   mo_energy = [-0.02880989  0.25560678  1.34962519]
beta-B3g nocc = 0
   mo_energy = [-0.03245511  0.23835838  1.30307199]
beta-B1u nocc = 0
   mo_energy = [-0.33977731 -0.08480408 -0.01869898  0.46796744  9.93405498]
beta-B2u nocc = 0
   mo_energy = [-0.33977731 -0.08480408 -0.01869898  0.46796744  9.93405498]
beta-B3u nocc = 0
   mo_energy = [-2.74120574e-01 -7.94407095e-02 -9.35662970e-03  5.12959609e-01
  9.98339726e+00]
[...]
   mo_energy = [-11.91618604  -1.22459     -0.12994662  -0.03249776  -0.0312296
  -0.02737768   0.23466158   0.23758956   0.6129465    1.27201444
   1.29596813  12.35021089]
alpha-B1g nocc = 0
   mo_energy = [-0.03060799  0.23490037  1.27673623]
alpha-B2g nocc = 0
   mo_energy = [-0.03060799  0.23490037  1.27673623]
alpha-B3g nocc = 0
   mo_energy = [-0.03249776  0.23758956  1.29596813]
alpha-B1u nocc = 0
   mo_energy = [-0.3627253  -0.0860604  -0.020743    0.45522525  9.92354994]
alpha-B2u nocc = 0
   mo_energy = [-0.3627253  -0.0860604  -0.020743    0.45522525  9.92354994]
alpha-B3u nocc = 1  HOMO = -0.911131983454704  LUMO = -0.0905391157848948
   mo_energy = [-0.91113198 -0.09053912 -0.02779712  0.40042408  9.90080229]
beta-Ag nocc = 2  HOMO = -1.08830921360207  LUMO = -0.126418220524308
   mo_energy = [-11.88694072  -1.08830921  -0.12641822  -0.03245511  -0.02858317
  -0.02342867   0.23835838   0.26156663   0.64416314   1.30307199
   1.36664505  12.37811051]
beta-B1g nocc = 0
   mo_energy = [-0.02880989  0.25560678  1.34962519]
beta-B2g nocc = 0
   mo_energy = [-0.02880989  0.25560678  1.34962519]
beta-B3g nocc = 0
   mo_energy = [-0.03245511  0.23835838  1.30307199]
beta-B1u nocc = 0
   mo_energy = [-0.33977731 -0.08480408 -0.01869898  0.46796744  9.93405498]
beta-B2u nocc = 0
   mo_energy = [-0.33977731 -0.08480408 -0.01869898  0.46796744  9.93405498]
beta-B3u nocc = 0
   mo_energy = [-2.74120573e-01 -7.94407095e-02 -9.35662969e-03  5.12959609e-01
  9.98339726e+00]
multiplicity <S^2> = 0.75626177  2S+1 = 2.006252
E1 = -47.55467934182072  Ecoul = 10.263760693640597
cycle= 77 E= -37.2909186481801  delta_E=    0  |g|= 1.66e-14  |ddm|= 1.07e-14
    CPU time for cycle= 77      0.04 sec, wall time      0.01 sec
diis-norm(errvec)=2.42147e-14
Linear dependence found in DIIS error vectors.
diis-c [-2.89052492e-16  1.25000000e-01  1.25000000e-01  1.25000000e-01
  1.25000000e-01  1.25000000e-01  1.25000000e-01  1.25000000e-01
  1.25000000e-01]
alpha HOMO (B3u) = -0.911131983454705  LUMO (B1u) = -0.362725298991745
alpha irrep_nelec = [2, 0, 0, 0, 0, 0, 1]
beta  irrep_nelec = [2, 0, 0, 0, 0, 0, 0]
alpha-Ag nocc = 2  HOMO = -1.22458999748304  LUMO = -0.129946624669142
   mo_energy = [-11.91618604  -1.22459     -0.12994662  -0.03249776  -0.0312296
  -0.02737768   0.23466158   0.23758956   0.6129465    1.27201444
   1.29596813  12.35021089]
alpha-B1g nocc = 0
   mo_energy = [-0.03060799  0.23490037  1.27673623]
alpha-B2g nocc = 0
   mo_energy = [-0.03060799  0.23490037  1.27673623]
alpha-B3g nocc = 0
   mo_energy = [-0.03249776  0.23758956  1.29596813]
alpha-B1u nocc = 0
   mo_energy = [-0.3627253  -0.0860604  -0.020743    0.45522525  9.92354994]
alpha-B2u nocc = 0
   mo_energy = [-0.3627253  -0.0860604  -0.020743    0.45522525  9.92354994]
alpha-B3u nocc = 1  HOMO = -0.911131983454705  LUMO = -0.0905391157848949
   mo_energy = [-0.91113198 -0.09053912 -0.02779712  0.40042408  9.90080229]
beta-Ag nocc = 2  HOMO = -1.08830921360207  LUMO = -0.126418220524307
   mo_energy = [-11.88694072  -1.08830921  -0.12641822  -0.03245511  -0.02858317
  -0.02342867   0.23835838   0.26156663   0.64416314   1.30307199
   1.36664505  12.37811051]
beta-B1g nocc = 0
   mo_energy = [-0.02880989  0.25560678  1.34962519]
beta-B2g nocc = 0
   mo_energy = [-0.02880989  0.25560678  1.34962519]
beta-B3g nocc = 0
   mo_energy = [-0.03245511  0.23835838  1.30307199]
beta-B1u nocc = 0
   mo_energy = [-0.33977731 -0.08480408 -0.01869898  0.46796744  9.93405498]
beta-B2u nocc = 0
   mo_energy = [-0.33977731 -0.08480408 -0.01869898  0.46796744  9.93405498]
beta-B3u nocc = 0
   mo_energy = [-2.74120573e-01 -7.94407095e-02 -9.35662969e-03  5.12959609e-01
  9.98339726e+00]
multiplicity <S^2> = 0.75626177  2S+1 = 2.006252
E1 = -47.55467934182073  Ecoul = 10.263760693640602
cycle= 78 E= -37.2909186481801  delta_E=    0  |g|= 1.09e-14  |ddm|= 1.62e-14
    CPU time for cycle= 78      0.04 sec, wall time      0.01 sec
diis-norm(errvec)=1.88451e-14
Linear dependence found in DIIS error vectors.
diis-c [-2.89052492e-16  1.25000000e-01  1.25000000e-01  1.25000000e-01
  1.25000000e-01  1.25000000e-01  1.25000000e-01  1.25000000e-01
  1.25000000e-01]
alpha HOMO (B3u) = -0.911131983454706  LUMO (B2u) = -0.362725298991745
alpha irrep_nelec = [2, 0, 0, 0, 0, 0, 1]
beta  irrep_nelec = [2, 0, 0, 0, 0, 0, 0]
alpha-Ag nocc = 2  HOMO = -1.22458999748304  LUMO = -0.129946624669143
   mo_energy = [-11.91618604  -1.22459     -0.12994662  -0.03249776  -0.0312296
  -0.02737768   0.23466158   0.23758956   0.6129465    1.27201444
   1.29596813  12.35021089]
alpha-B1g nocc = 0
   mo_energy = [-0.03060799  0.23490037  1.27673623]
alpha-B2g nocc = 0
   mo_energy = [-0.03060799  0.23490037  1.27673623]
alpha-B3g nocc = 0
   mo_energy = [-0.03249776  0.23758956  1.29596813]
alpha-B1u nocc = 0
   mo_energy = [-0.3627253  -0.0860604  -0.020743    0.45522525  9.92354994]
alpha-B2u nocc = 0
   mo_energy = [-0.3627253  -0.0860604  -0.020743    0.45522525  9.92354994]
alpha-B3u nocc = 1  HOMO = -0.911131983454706  LUMO = -0.0905391157848949
   mo_energy = [-0.91113198 -0.09053912 -0.02779712  0.40042408  9.90080229]
beta-Ag nocc = 2  HOMO = -1.08830921360206  LUMO = -0.126418220524307
   mo_energy = [-11.88694072  -1.08830921  -0.12641822  -0.03245511  -0.02858317
  -0.02342867   0.23835838   0.26156663   0.64416314   1.30307199
   1.36664505  12.37811051]
beta-B1g nocc = 0
   mo_energy = [-0.02880989  0.25560678  1.34962519]
beta-B2g nocc = 0
   mo_energy = [-0.02880989  0.25560678  1.34962519]
beta-B3g nocc = 0
   mo_energy = [-0.03245511  0.23835838  1.30307199]
beta-B1u nocc = 0
   mo_energy = [-0.33977731 -0.08480408 -0.01869898  0.46796744  9.93405498]
beta-B2u nocc = 0
   mo_energy = [-0.33977731 -0.08480408 -0.01869898  0.46796744  9.93405498]
beta-B3u nocc = 0
   mo_energy = [-2.74120573e-01 -7.94407095e-02 -9.35662969e-03  5.12959609e-01
  9.98339726e+00]
multiplicity <S^2> = 0.75626177  2S+1 = 2.006252
E1 = -47.554679341820744  Ecoul = 10.263760693640602
cycle= 79 E= -37.2909186481801  delta_E= -1.42e-14  |g|= 1.53e-14  |ddm|= 1.67e-14
    CPU time for cycle= 79      0.04 sec, wall time      0.01 sec
diis-norm(errvec)=2.04917e-14
Linear dependence found in DIIS error vectors.
diis-c [-2.89052492e-16  1.25000000e-01  1.25000000e-01  1.25000000e-01
  1.25000000e-01  1.25000000e-01  1.25000000e-01  1.25000000e-01
  1.25000000e-01]
alpha HOMO (B3u) = -0.911131983454706  LUMO (B1u) = -0.362725298991744
alpha irrep_nelec = [2, 0, 0, 0, 0, 0, 1]
beta  irrep_nelec = [2, 0, 0, 0, 0, 0, 0]
alpha-Ag nocc = 2  HOMO = -1.22458999748304  LUMO = -0.129946624669143
   mo_energy = [-11.91618604  -1.22459     -0.12994662  -0.03249776  -0.0312296
  -0.02737768   0.23466158   0.23758956   0.6129465    1.27201444
   1.29596813  12.35021089]
alpha-B1g nocc = 0
   mo_energy = [-0.03060799  0.23490037  1.27673623]
alpha-B2g nocc = 0
   mo_energy = [-0.03060799  0.23490037  1.27673623]
alpha-B3g nocc = 0
   mo_energy = [-0.03249776  0.23758956  1.29596813]
alpha-B1u nocc = 0
   mo_energy = [-0.3627253  -0.0860604  -0.020743    0.45522525  9.92354994]
alpha-B2u nocc = 0
   mo_energy = [-0.3627253  -0.0860604  -0.020743    0.45522525  9.92354994]
alpha-B3u nocc = 1  HOMO = -0.911131983454706  LUMO = -0.0905391157848948
   mo_energy = [-0.91113198 -0.09053912 -0.02779712  0.40042408  9.90080229]
beta-Ag nocc = 2  HOMO = -1.08830921360206  LUMO = -0.126418220524307
   mo_energy = [-11.88694072  -1.08830921  -0.12641822  -0.03245511  -0.02858317
  -0.02342867   0.23835838   0.26156663   0.64416314   1.30307199
   1.36664505  12.37811051]
beta-B1g nocc = 0
   mo_energy = [-0.02880989  0.25560678  1.34962519]
beta-B2g nocc = 0
   mo_energy = [-0.02880989  0.25560678  1.34962519]
beta-B3g nocc = 0
   mo_energy = [-0.03245511  0.23835838  1.30307199]
beta-B1u nocc = 0
   mo_energy = [-0.33977731 -0.08480408 -0.01869898  0.46796744  9.93405498]
beta-B2u nocc = 0
   mo_energy = [-0.33977731 -0.08480408 -0.01869898  0.46796744  9.93405498]
beta-B3u nocc = 0
   mo_energy = [-2.74120573e-01 -7.94407095e-02 -9.35662969e-03  5.12959609e-01
  9.98339726e+00]
multiplicity <S^2> = 0.75626177  2S+1 = 2.006252
E1 = -47.554679341820744  Ecoul = 10.263760693640606
cycle= 80 E= -37.2909186481801  delta_E=    0  |g|= 1.55e-14  |ddm|= 1.29e-14
    CPU time for cycle= 80      0.04 sec, wall time      0.01 sec
diis-norm(errvec)=2.19361e-14
Linear dependence found in DIIS error vectors.
diis-c [-2.89052492e-16  1.25000000e-01  1.25000000e-01  1.25000000e-01
  1.25000000e-01  1.25000000e-01  1.25000000e-01  1.25000000e-01
  1.25000000e-01]
alpha HOMO (B3u) = -0.911131983454706  LUMO (B2u) = -0.362725298991745
alpha irrep_nelec = [2, 0, 0, 0, 0, 0, 1]
beta  irrep_nelec = [2, 0, 0, 0, 0, 0, 0]
alpha-Ag nocc = 2  HOMO = -1.22458999748304  LUMO = -0.129946624669142
   mo_energy = [-11.91618604  -1.22459     -0.12994662  -0.03249776  -0.0312296
  -0.02737768   0.23466158   0.23758956   0.6129465    1.27201444
   1.29596813  12.35021089]
alpha-B1g nocc = 0
   mo_energy = [-0.03060799  0.23490037  1.27673623]
alpha-B2g nocc = 0
   mo_energy = [-0.03060799  0.23490037  1.27673623]
alpha-B3g nocc = 0
   mo_energy = [-0.03249776  0.23758956  1.29596813]
alpha-B1u nocc = 0
   mo_energy = [-0.3627253  -0.0860604  -0.020743    0.45522525  9.92354994]
alpha-B2u nocc = 0
   mo_energy = [-0.3627253  -0.0860604  -0.020743    0.45522525  9.92354994]
alpha-B3u nocc = 1  HOMO = -0.911131983454706  LUMO = -0.0905391157848949
   mo_energy = [-0.91113198 -0.09053912 -0.02779712  0.40042408  9.90080229]
beta-Ag nocc = 2  HOMO = -1.08830921360206  LUMO = -0.126418220524307
   mo_energy = [-11.88694072  -1.08830921  -0.12641822  -0.03245511  -0.02858317
  -0.02342867   0.23835838   0.26156663   0.64416314   1.30307199
   1.36664505  12.37811051]
beta-B1g nocc = 0
   mo_energy = [-0.02880989  0.25560678  1.34962519]
beta-B2g nocc = 0
   mo_energy = [-0.02880989  0.25560678  1.34962519]
beta-B3g nocc = 0
   mo_energy = [-0.03245511  0.23835838  1.30307199]
beta-B1u nocc = 0
   mo_energy = [-0.33977731 -0.08480408 -0.01869898  0.46796744  9.93405498]
beta-B2u nocc = 0
   mo_energy = [-0.33977731 -0.08480408 -0.01869898  0.46796744  9.93405498]
beta-B3u nocc = 0
   mo_energy = [-2.74120573e-01 -7.94407095e-02 -9.35662969e-03  5.12959609e-01
  9.98339726e+00]
multiplicity <S^2> = 0.75626177  2S+1 = 2.006252
E1 = -47.55467934182076  Ecoul = 10.263760693640615
cycle= 81 E= -37.2909186481801  delta_E= -7.11e-15  |g|= 1.05e-14  |ddm|= 6.66e-15
    CPU time for cycle= 81      0.04 sec, wall time      0.01 sec
diis-norm(errvec)=1.1212e-14
Linear dependence found in DIIS error vectors.
diis-c [-2.89052492e-16  1.25000000e-01  1.25000000e-01  1.25000000e-01
  1.25000000e-01  1.25000000e-01  1.25000000e-01  1.25000000e-01
  1.25000000e-01]
alpha HOMO (B3u) = -0.911131983454706  LUMO (B1u) = -0.362725298991745
alpha irrep_nelec = [2, 0, 0, 0, 0, 0, 1]
beta  irrep_nelec = [2, 0, 0, 0, 0, 0, 0]
alpha-Ag nocc = 2  HOMO = -1.22458999748304  LUMO = -0.129946624669142
   mo_energy = [-11.91618604  -1.22459     -0.12994662  -0.03249776  -0.0312296
  -0.02737768   0.23466158   0.23758956   0.6129465    1.27201444
   1.29596813  12.35021089]
alpha-B1g nocc = 0
   mo_energy = [-0.03060799  0.23490037  1.27673623]
alpha-B2g nocc = 0
   mo_energy = [-0.03060799  0.23490037  1.27673623]
alpha-B3g nocc = 0
   mo_energy = [-0.03249776  0.23758956  1.29596813]
alpha-B1u nocc = 0
   mo_energy = [-0.3627253  -0.0860604  -0.020743    0.45522525  9.92354994]
alpha-B2u nocc = 0
   mo_energy = [-0.3627253  -0.0860604  -0.020743    0.45522525  9.92354994]
alpha-B3u nocc = 1  HOMO = -0.911131983454706  LUMO = -0.0905391157848947
   mo_energy = [-0.91113198 -0.09053912 -0.02779712  0.40042408  9.90080229]
beta-Ag nocc = 2  HOMO = -1.08830921360206  LUMO = -0.126418220524307
   mo_energy = [-11.88694072  -1.08830921  -0.12641822  -0.03245511  -0.02858317
  -0.02342867   0.23835838   0.26156663   0.64416314   1.30307199
   1.36664505  12.37811051]
beta-B1g nocc = 0
   mo_energy = [-0.02880989  0.25560678  1.34962519]
beta-B2g nocc = 0
   mo_energy = [-0.02880989  0.25560678  1.34962519]
beta-B3g nocc = 0
   mo_energy = [-0.03245511  0.23835838  1.30307199]
beta-B1u nocc = 0
   mo_energy = [-0.33977731 -0.08480408 -0.01869898  0.46796744  9.93405498]
beta-B2u nocc = 0
   mo_energy = [-0.33977731 -0.08480408 -0.01869898  0.46796744  9.93405498]
beta-B3u nocc = 0
   mo_energy = [-2.74120573e-01 -7.94407095e-02 -9.35662969e-03  5.12959609e-01
  9.98339726e+00]
multiplicity <S^2> = 0.75626177  2S+1 = 2.006252
E1 = -47.55467934182073  Ecoul = 10.263760693640595
cycle= 82 E= -37.2909186481801  delta_E= 7.11e-15  |g|= 1.34e-14  |ddm|= 7.33e-15
    CPU time for cycle= 82      0.04 sec, wall time      0.01 sec
diis-norm(errvec)=1.55874e-14
Linear dependence found in DIIS error vectors.
diis-c [-2.89052492e-16  1.25000000e-01  1.25000000e-01  1.25000000e-01
  1.25000000e-01  1.25000000e-01  1.25000000e-01  1.25000000e-01
  1.25000000e-01]
alpha HOMO (B3u) = -0.911131983454706  LUMO (B1u) = -0.362725298991744
alpha irrep_nelec = [2, 0, 0, 0, 0, 0, 1]
beta  irrep_nelec = [2, 0, 0, 0, 0, 0, 0]
alpha-Ag nocc = 2  HOMO = -1.22458999748304  LUMO = -0.129946624669144
   mo_energy = [-11.91618604  -1.22459     -0.12994662  -0.03249776  -0.0312296
  -0.02737768   0.23466158   0.23758956   0.6129465    1.27201444
   1.29596813  12.35021089]
alpha-B1g nocc = 0
   mo_energy = [-0.03060799  0.23490037  1.27673623]
alpha-B2g nocc = 0
   mo_energy = [-0.03060799  0.23490037  1.27673623]
alpha-B3g nocc = 0
   mo_energy = [-0.03249776  0.23758956  1.29596813]
alpha-B1u nocc = 0
   mo_energy = [-0.3627253  -0.0860604  -0.020743    0.45522525  9.92354994]
alpha-B2u nocc = 0
   mo_energy = [-0.3627253  -0.0860604  -0.020743    0.45522525  9.92354994]
alpha-B3u nocc = 1  HOMO = -0.911131983454706  LUMO = -0.0905391157848948
   mo_energy = [-0.91113198 -0.09053912 -0.02779712  0.40042408  9.90080229]
beta-Ag nocc = 2  HOMO = -1.08830921360207  LUMO = -0.126418220524307
   mo_energy = [-11.88694072  -1.08830921  -0.12641822  -0.03245511  -0.02858317
  -0.02342867   0.23835838   0.26156663   0.64416314   1.30307199
   1.36664505  12.37811051]
beta-B1g nocc = 0
   mo_energy = [-0.02880989  0.25560678  1.34962519]
beta-B2g nocc = 0
   mo_energy = [-0.02880989  0.25560678  1.34962519]
beta-B3g nocc = 0
   mo_energy = [-0.03245511  0.23835838  1.30307199]
beta-B1u nocc = 0
   mo_energy = [-0.33977731 -0.08480408 -0.01869898  0.46796744  9.93405498]
beta-B2u nocc = 0
   mo_energy = [-0.33977731 -0.08480408 -0.01869898  0.46796744  9.93405498]
beta-B3u nocc = 0
   mo_energy = [-2.74120573e-01 -7.94407095e-02 -9.35662969e-03  5.12959609e-01
  9.98339726e+00]
multiplicity <S^2> = 0.75626177  2S+1 = 2.006252
E1 = -47.55467934182074  Ecoul = 10.263760693640606
cycle= 83 E= -37.2909186481801  delta_E= 7.11e-15  |g|= 1.11e-14  |ddm|= 4.66e-15
    CPU time for cycle= 83      0.04 sec, wall time      0.01 sec
diis-norm(errvec)=2.12528e-14
Linear dependence found in DIIS error vectors.
diis-c [-2.89052492e-16  1.25000000e-01  1.25000000e-01  1.25000000e-01
  1.25000000e-01  1.25000000e-01  1.25000000e-01  1.25000000e-01
  1.25000000e-01]
alpha HOMO (B3u) = -0.911131983454705  LUMO (B1u) = -0.362725298991744
alpha irrep_nelec = [2, 0, 0, 0, 0, 0, 1]
beta  irrep_nelec = [2, 0, 0, 0, 0, 0, 0]
alpha-Ag nocc = 2  HOMO = -1.22458999748304  LUMO = -0.129946624669144
   mo_energy = [-11.91618604  -1.22459     -0.12994662  -0.03249776  -0.0312296
  -0.02737768   0.23466158   0.23758956   0.6129465    1.27201444
   1.29596813  12.35021089]
alpha-B1g nocc = 0
   mo_energy = [-0.03060799  0.23490037  1.27673623]
alpha-B2g nocc = 0
   mo_energy = [-0.03060799  0.23490037  1.27673623]
alpha-B3g nocc = 0
   mo_energy = [-0.03249776  0.23758956  1.29596813]
alpha-B1u nocc = 0
   mo_energy = [-0.3627253  -0.0860604  -0.020743    0.45522525  9.92354994]
alpha-B2u nocc = 0
   mo_energy = [-0.3627253  -0.0860604  -0.020743    0.45522525  9.92354994]
alpha-B3u nocc = 1  HOMO = -0.911131983454705  LUMO = -0.0905391157848948
   mo_energy = [-0.91113198 -0.09053912 -0.02779712  0.40042408  9.90080229]
beta-Ag nocc = 2  HOMO = -1.08830921360206  LUMO = -0.126418220524307
   mo_energy = [-11.88694072  -1.08830921  -0.12641822  -0.03245511  -0.02858317
  -0.02342867   0.23835838   0.26156663   0.64416314   1.30307199
   1.36664505  12.37811051]
beta-B1g nocc = 0
   mo_energy = [-0.02880989  0.25560678  1.34962519]
beta-B2g nocc = 0
   mo_energy = [-0.02880989  0.25560678  1.34962519]
beta-B3g nocc = 0
   mo_energy = [-0.03245511  0.23835838  1.30307199]
beta-B1u nocc = 0
   mo_energy = [-0.33977731 -0.08480408 -0.01869898  0.46796744  9.93405498]
beta-B2u nocc = 0
   mo_energy = [-0.33977731 -0.08480408 -0.01869898  0.46796744  9.93405498]
beta-B3u nocc = 0
   mo_energy = [-2.74120573e-01 -7.94407095e-02 -9.35662969e-03  5.12959609e-01
  9.98339726e+00]
multiplicity <S^2> = 0.75626177  2S+1 = 2.006252
E1 = -47.554679341820744  Ecoul = 10.263760693640611
cycle= 84 E= -37.2909186481801  delta_E=    0  |g|= 1.19e-14  |ddm|= 5.11e-15
    CPU time for cycle= 84      0.03 sec, wall time      0.01 sec
alpha HOMO (B3u) = -0.911131983454707  LUMO (B2u) = -0.362725298991743
alpha irrep_nelec = [2, 0, 0, 0, 0, 0, 1]
beta  irrep_nelec = [2, 0, 0, 0, 0, 0, 0]
alpha-Ag nocc = 2  HOMO = -1.22458999748304  LUMO = -0.129946624669142
   mo_energy = [-11.91618604  -1.22459     -0.12994662  -0.03249776  -0.0312296
  -0.02737768   0.23466158   0.23758956   0.6129465    1.27201444
   1.29596813  12.35021089]
alpha-B1g nocc = 0
   mo_energy = [-0.03060799  0.23490037  1.27673623]
alpha-B2g nocc = 0
   mo_energy = [-0.03060799  0.23490037  1.27673623]
alpha-B3g nocc = 0
   mo_energy = [-0.03249776  0.23758956  1.29596813]
alpha-B1u nocc = 0
   mo_energy = [-0.3627253  -0.0860604  -0.020743    0.45522525  9.92354994]
alpha-B2u nocc = 0
   mo_energy = [-0.3627253  -0.0860604  -0.020743    0.45522525  9.92354994]
alpha-B3u nocc = 1  HOMO = -0.911131983454707  LUMO = -0.0905391157848948
   mo_energy = [-0.91113198 -0.09053912 -0.02779712  0.40042408  9.90080229]
beta-Ag nocc = 2  HOMO = -1.08830921360206  LUMO = -0.126418220524307
   mo_energy = [-11.88694072  -1.08830921  -0.12641822  -0.03245511  -0.02858317
  -0.02342867   0.23835838   0.26156663   0.64416314   1.30307199
   1.36664505  12.37811051]
beta-B1g nocc = 0
   mo_energy = [-0.02880989  0.25560678  1.34962519]
beta-B2g nocc = 0
   mo_energy = [-0.02880989  0.25560678  1.34962519]
beta-B3g nocc = 0
   mo_energy = [-0.03245511  0.23835838  1.30307199]
beta-B1u nocc = 0
   mo_energy = [-0.33977731 -0.08480408 -0.01869898  0.46796744  9.93405498]
beta-B2u nocc = 0
   mo_energy = [-0.33977731 -0.08480408 -0.01869898  0.46796744  9.93405498]
beta-B3u nocc = 0
   mo_energy = [-2.74120573e-01 -7.94407095e-02 -9.35662969e-03  5.12959609e-01
  9.98339726e+00]
multiplicity <S^2> = 0.75626177  2S+1 = 2.006252
E1 = -47.55467934182076  Ecoul = 10.263760693640606
Extra cycle  E= -37.2909186481802  delta_E= -2.13e-14  |g|= 1.7e-14  |ddm|= 5.11e-15
    CPU time for scf_cycle      3.50 sec, wall time      0.94 sec
    CPU time for SCF      3.51 sec, wall time      0.95 sec
converged SCF energy = -37.2909186481802  <S^2> = 0.75626177  2S+1 = 2.006252
irreps of each MO ['Ag' 'Ag' 'B3u' 'B1u' 'B2u' 'Ag' 'B3u' 'B1u' 'B2u' 'Ag' 'B3g' 'Ag' 'B1g'
 'B2g' 'B3u' 'Ag' 'B1u' 'B2u' 'Ag' 'B1g' 'B2g' 'Ag' 'B3g' 'B3u' 'B1u'
 'B2u' 'Ag' 'Ag' 'B1g' 'B2g' 'Ag' 'B3g' 'B3u' 'B1u' 'B2u' 'Ag']
irreps of each MO ['Ag' 'Ag' 'B1u' 'B2u' 'B3u' 'Ag' 'B1u' 'B2u' 'B3u' 'Ag' 'B3g' 'B1g' 'B2g'
 'Ag' 'Ag' 'B1u' 'B2u' 'B3u' 'Ag' 'B3g' 'B1g' 'B2g' 'Ag' 'B1u' 'B2u' 'B3u'
 'Ag' 'Ag' 'B3g' 'B1g' 'B2g' 'Ag' 'B1u' 'B2u' 'B3u' 'Ag']
irreps of each MO ['Ag' 'Ag' 'B3u' 'B2u' 'B1u' 'Ag' 'B1u' 'B2u' 'B3u' 'B3g' 'Ag' 'Ag' 'B2g'
 'B1g' 'Ag' 'B2u' 'B1u' 'B3u' 'Ag' 'B2g' 'B1g' 'Ag' 'B3g' 'B3u' 'B1u'
 'B2u' 'Ag' 'Ag' 'B1g' 'B2g' 'Ag' 'B3g' 'B3u' 'B2u' 'B1u' 'Ag']
