Starting run at: Tue 09 Sep 2025 07:08:34 AM EDT
 **********************************************************************
                          MRCC program system
 **********************************************************************
 
                              Written by
     Mihaly Kallay, Peter R. Nagy, David Mester, Laszlo Gyevi-Nagy,
        Jozsef Csoka, P. Bernat Szabo, Zoltan Rolik, Gyula Samu,
      Bence Hegely, Bence Ladoczki, Klara Petrov, Jozsef Csontos,
     Adam Ganyecz, Istvan Ladjanszki, Lorant Szegedy, Mate Farkas,
          Pal D. Mezei, Reka A. Horvath, and Balazs D. Lorincz
 
        Department of Physical Chemistry and Materials Science
            Budapest University of Technology and Economics
                  Budapest P.O.Box 91, H-1521 Hungary
 
                              www.mrcc.hu
 
                            Version: 25.1.1

 ************************ 2025-09-09 07:08:34 *************************
 Executing minp...

 Reading input from MINP...
 
 Input file:
 
basis=aCV6Z-MOLP-U
iface=cfour
uncontract=off
calc=CCSDT(Q)
ccprog=mrcc
mem=35GB
core=corr
itol=18
scftol=13
cctol=6
ccmaxit=999
scfmaxit=9999
scfiguess=ao
scftype=UHF
#rohftype=semicanonical
rest=2
charge=+0
mult=3
refdet=serialno
1-3
4,5

symm=2
occ=2,0,0,0,0,1,1,1/2,0,0,0,0,0,0,1
geom
O

#Li 1 R
#R=3.065

#unit=angstroms

tprint=0.01
verbosity=3
#nstate=4
 
 
 Checking keyword combinations...
 
 Keywords:
 
 active=none
 agrid=ld0006-ld0590
 agrid_pssp=ld0006-ld0194
 agrid_pssp_sm=ld0006-ld0074
 basis=acv6z-molp-u
 basis_sm=none
 basopt=off
 bfbasis=none
 bfgsmem=10
 bfgstol=1.0d-3
 boysalg=jacobi
 bpcompo=0.985
 bpcompv=0.98
 bpdfo=0.985
 bpocc=0.985
 bppdo=0.985
 bppdv=0.98
 bpedo=0.985
 bpedv=0.98
 bp_subsyso=0.95
 bp_subsysv=0.95
 cabscorr=off
 cabsdual=off
 calc=ccsdt(q)
 ccmaxit=999
 ccprog=mrcc
 ccsdalg=disk
 ccsdmkl=seq
 ccsdrest=off
 ccsdthreads=2
 cctol=6
 charge=+0
 cialg=disk
 ciguess=off
 cmpgrp=auto
 comprest=off
 coord_sys=ric
 core=corr
 corembed=off
 csapprox=off
 cvs=off
 dboc=off
 deltaf12=off
 delocsomofact=
 dendec=cholesky
 dens=0
 denscorr=0
 dfalg=lineq
 dfbasis_cab=none
 dfbasis_cor=none
 dfbasis_scf=none
 dfbasis_scf_sm=auto
 dfintran=ovirt
 dft=off
 dhexc=adc(2)
 diag=david
 docc=
 domrad=10.d0
 drpaalg=fit
 dual=off
 dual_df=off
 dyson=off
 ecp=auto
 edisp=off
 edisp_embed=off
 embed=off
 epairestfact=off
 epairscale=1.d0
 etemp=300
 epert=none
 eps=
 espcharge=off
 excrad=0.d0
 excrad_f12=0.d0
 excrad_fin=0.000000000D+00
 fastdbbsc=v2
 fitting=coulomb
 fmm=off
 fmmord=8
 fnonorb=
 freq=off
 gamma=1.d0
 gauss=spher
 geom=zmat
 gopt=off
 ghost=none
 gtol=7
 grdens=off
 grid=auto
 grid_sm=auto
 gridbatch_cos=2000
 grtol=10
 guido_ct=off
 hamilton=dc
 iface=cfour
 incore=off
 intalg=auto
 ip_ea=off
 itol=18
 laptol=1.d-2
 lccoporder=trffirst
 lcorthr=normal
 lccrest=off
 ldfgrad_tol=8
 lmp2dens=on
 lnoepso=0.d0
 lnoepsv=1e-6
 localcc=off
 localcorrsymm=off
 locintrf=disk
 mact=
 maxact=off
 maxdim=200
 maxex=0
 maxmicroit=100
 mcscfiguess=hf
 mem=35gb
 mmprog=
 molden=on
 mp2ongrid=off
 mpitasks=1
 mulmet=0
 mult=3
 nab=off
 nacto=0
 nactv=0
 naf_amp=3.16d-3
 naf_cor=off
 naf_f12=off
 naf_scf=off
 nafalg=albe
 nafdens=off
 naftyp=
 nchol=auto
 ndeps=1e-3
 nstate=1
 nsing=0
 nto=off
 ntrip=0
 num_grad=off
 occ=2,0,0,0,0,1,1,1/2,0,0,0,0,0,0,1
 occri=off
 oniom=off
 oniom_eechg=off
 oniom_pcm=off
 oniom_qcorr=off
 optalg=
 optmaxit=50
 optetol=1e-6
 optex=0
 optgtol=1e-4
 optstol=1e-3
 orblocc=off
 orbloce=off
 orbloco=off
 orblocv=off
 orblocguess=cholesky
 osveps=1e-3
 ovirt=off
 ovltol=1e-7
 ovosnorb=80.0
 pao_subsys_tol=1e-3
 pao_tol=1e-3
 pcm=off
 popul=off
 pressure=100000
 pssp=off
 ptfreq=0.0
 ptthreads=2
 qmreg=
 qmmm=off
 qro=off
 qscf=off
 redcost_exc=off
 redcost_tddft=off
 refdet=serialno
 rest=2
 rgrid=log3
 rism=off
 rohfcore=semicanonical
 rohftype=semicanonical
 scfalg=auto
 scf_conv=auto
 scfdamp=0.0d0
 scfdamp_mode=off
 scfdamp_end=9999
 scfdamp_dampstep=0.d0
 scfdamp_dtol=0.0d0
 scfdamp_maxfact=0.0d0
 scfdamp_minfact=0.0d0
 scfdiis=on
 scfdiis_dtol=0.0d0
 scfdiis_end=9999
 scfdiis_start=2
 scfdiis_step=1
 scfdiis_watch=off
 scfdiis_wrange=10
 scfdiis_wlimit=5
 scfdiis_delmax=2
 scfdtol=14
 scfext=10
 scfguessdens=
 scfiguess=ao
 scfloc=off
 scflshift=0.20
 scflshift_end=8
 scflshift_dtol=0.0
 scflshift_gaptol=0.20
 scfmaxit=9999
 scftype=uhf
 scftol=13
 scspe=1.d0
 scsph=1.d0
 scsps=1.2d0
 scsps_t=1.2d0
 scspt=0.33333333333333
 scspt_t=0.33333333333333
 scspv=1.d0
 spairtol=1e-4
 sqmprog=
 subminp=top
 subsys_bopu=on
 symm=2
 talg=occ
 temp=298.15
 test=off
 theodore=off
 tlmo=0.999
 tpao=0.94
 tprint=0.01
 uncontract=off
 unit=angs
 usedisk=2
 verbosity=3
 wpairtol=0.100000000E-05
 ispstart=
 ispend=

 ************************ 2025-09-09 07:08:35 *************************
 Executing goldstone...

 Generation of CC equations in terms of H and T...
 Generation of antisymmetrized Goldstone diagrams...
 Number of diagrams in T^1 equations:    15
 Number of diagrams in T^2 equations:    38
 Number of diagrams in T^3 equations:    50
 Number of diagrams in T^4 equations:     5
 Translation of diagrams to factorized equations...
 Optimizing intermediate calculation...
 Number of floating-point operations per iteration step:   6.6667E+13
 Probable CPU time per iteration step (hours):          666.67
 Required memory (Mbytes):        492530.4
 Number of intermediates:                                  80
 Number of intermediates to be stored:                     32
 Length of intermediate file (Mbytes):          7960.9

 ************************ 2025-09-09 07:08:35 *************************
 Executing xmrcc...

 **********************************************************************
 CC(3)(4) calculation 
 
 
 Allocation of        35840.0 Mbytes of memory...
 Number of spinorbitals:                   504
 Number of alpha electrons:                        5
 Number of beta electrons:                         3
 Spin multiplicity:                     2
 z-component of spin:  1.0
 Spatial symmetry:                      2
 Convergence criterion:  1.0E-06
 Construction of occupation graphs...
 Number of                     0 -fold excitations:                      1
 Number of                     1 -fold excitations:                    376
 Number of                     2 -fold excitations:                 176407
 Number of                     3 -fold excitations:               46414986
 Total number of configurations:               46591770
 Calculation of coupling coefficients...
 Length of intermediate file (Mbytes):          6042.4
 
 ======================================================================
 
 Spin case  1   Alpha:  1   Beta:  3
 Number of excitations:              392963211
 Spin case  2   Alpha:  2   Beta:  2
 Number of excitations:             3520883652
 Spin case  3   Alpha:  3   Beta:  1
 Number of excitations:             2313957507
 Spin case  4   Alpha:  4   Beta:  0
 Number of excitations:               94257730
 Number of                     4 -fold excitations:             6322062100
 
 Memory requirements /Mbyte/: 
               Minimal        Optimal
 Real*8:      14431.1046     30769.4438
 Integer:      1272.5218
 Total:       15703.6264     32041.9656
 

 ************************ 2025-09-09 07:10:33 *************************
 Executing goldstone...

 Generation of CC equations in terms of H and T...
 Generation of antisymmetrized Goldstone diagrams...
 Number of diagrams in T^1 equations:    15
 Number of diagrams in T^2 equations:    34
 Number of diagrams in T^3 equations:     2
 Translation of diagrams to factorized equations...
 Optimizing intermediate calculation...
 Number of floating-point operations per iteration step:   1.0023E+11
 Probable CPU time per iteration step (hours):            1.00
 Required memory (Mbytes):        492530.4
 Number of intermediates:                                  49
 Number of intermediates to be stored:                     20
 Length of intermediate file (Mbytes):          7667.5

 ************************ 2025-09-09 07:10:37 *************************
 Executing xmrcc...

 **********************************************************************
 CC(2)(3) calculation 
 
 
 Allocation of        35840.0 Mbytes of memory...
 Number of spinorbitals:                   504
 Number of alpha electrons:                        5
 Number of beta electrons:                         3
 Spin multiplicity:                     2
 z-component of spin:  1.0
 Spatial symmetry:                      2
 Convergence criterion:  1.0E-06
 Construction of occupation graphs...
 Number of                     0 -fold excitations:                      1
 Number of                     1 -fold excitations:                    376
 Number of                     2 -fold excitations:                 176407
 Total number of configurations:                 176784
 Calculation of coupling coefficients...
 Length of intermediate file (Mbytes):          5819.9
 
 ======================================================================
 
 Spin case  1   Alpha:  0   Beta:  3
 Number of excitations:                 320825
 Spin case  2   Alpha:  1   Beta:  2
 Number of excitations:               14475407
 Spin case  3   Alpha:  2   Beta:  1
 Number of excitations:               28536702
 Spin case  4   Alpha:  3   Beta:  0
 Number of excitations:                3082052
 Number of                     3 -fold excitations:               46414986
 
 Memory requirements /Mbyte/: 
               Minimal        Optimal
 Real*8:       3942.2150     30993.9373
 Integer:        38.5117
 Total:        3980.7266     31032.4489
 

 ************************ 2025-09-09 07:10:39 *************************
 Executing mrcc...

 **********************************************************************
 CCSD(T) calculation                                                    
 
 
 OpenMP parallel version is running.
 Number of CPU cores:   4
 Allocation of        30993.9 Mbytes of memory...
 Number of spinorbitals: 504
 Number of alpha electrons:  5
 Number of beta  electrons:  3
 Spin multiplicity: 3
 z-component of spin:  1.0
 Spatial symmetry: 2
 Convergence criterion:  1.0E-06
 Construction of occupation graphs...
 Number of 0-fold excitations: 1
 Number of 1-fold excitations: 376
 Number of 2-fold excitations: 176407
 Total number of determinants: 176784
 Calculation of coupling coefficients...
 Initial cluster amplitudes are generated.
 Length of intermediate file (Mbytes):    5819.9
 Reading integral list from unit 55...
 Sorting integrals...
 Sorting integrals...
 Sorting integrals...
 Sorting integrals...
 Energy of reference determinant [au]:     -74.702376421885
 Calculation of MP denominators...
 
 Starting CC iteration...
 ======================================================================
 Norm of residual vector:     3.46909362
 CPU time [min]:    13.003                   Wall time [min]:    13.818
 
 Iteration  1  CC energy:   -74.99824934  Energy decrease:   0.29587292
 ======================================================================
 Norm of residual vector:     0.37497424
 CPU time [min]:    16.357                   Wall time [min]:    16.769
 
 Iteration  2  CC energy:   -75.04230315  Energy decrease:   0.04405381
 ======================================================================
 Norm of residual vector:     2.97398034
 CPU time [min]:    19.589                   Wall time [min]:    19.597
 
 Iteration  3  CC energy:   -75.06016295  Energy decrease:   0.01785979
 ======================================================================
 Norm of residual vector:    60.18772231
 CPU time [min]:    22.871                   Wall time [min]:    22.446
 
 Iteration  4  CC energy:   -75.06025561  Energy decrease:   0.00009266
 ======================================================================
 Norm of residual vector:    32.40254452
 CPU time [min]:    26.169                   Wall time [min]:    25.300
 
 Iteration  5  CC energy:   -75.05793908  Energy decrease:   0.00231653
 ======================================================================
 Norm of residual vector:    11.69002261
 CPU time [min]:    29.461                   Wall time [min]:    28.149
 
 Iteration  6  CC energy:   -75.05798151  Energy decrease:   0.00004242
 ======================================================================
 Norm of residual vector:    15.29521478
 CPU time [min]:    32.720                   Wall time [min]:    30.969
 
 Iteration  7  CC energy:   -75.05980927  Energy decrease:   0.00182776
 ======================================================================
 Norm of residual vector:     4.68627800
 CPU time [min]:    35.939                   Wall time [min]:    33.746
 
 Iteration  8  CC energy:   -75.05979184  Energy decrease:   0.00001743
 ======================================================================
 Norm of residual vector:     6.42338237
 CPU time [min]:    39.106                   Wall time [min]:    36.479
 
 Iteration  9  CC energy:   -75.05932049  Energy decrease:   0.00047136
 ======================================================================
 Norm of residual vector:     2.29927340
 CPU time [min]:    42.389                   Wall time [min]:    39.288
 
 Iteration 10  CC energy:   -75.05931915  Energy decrease:   0.00000134
 ======================================================================
 Norm of residual vector:     1.75246414
 CPU time [min]:    45.769                   Wall time [min]:    42.182
 
 Iteration 11  CC energy:   -75.05933018  Energy decrease:   0.00001104
 ======================================================================
 Norm of residual vector:     0.03413846
 CPU time [min]:    49.173                   Wall time [min]:    45.069
 
 Iteration 12  CC energy:   -75.05935661  Energy decrease:   0.00002642
 ======================================================================
 Norm of residual vector:     0.56464373
 CPU time [min]:    52.527                   Wall time [min]:    48.054
 
 Iteration 13  CC energy:   -75.05935746  Energy decrease:   0.00000085
 ======================================================================
 Norm of residual vector:     0.09495582
 CPU time [min]:    55.880                   Wall time [min]:    50.909
 
 Iteration 14  CC energy:   -75.05935301  Energy decrease:   0.00000445
 ======================================================================
 Norm of residual vector:     0.00076537
 CPU time [min]:    59.209                   Wall time [min]:    53.757
 
 Iteration 15  CC energy:   -75.05935466  Energy decrease:   0.00000166
 ======================================================================
 Norm of residual vector:     0.00033722
 CPU time [min]:    62.734                   Wall time [min]:    56.668
 
 Iteration 16  CC energy:   -75.05935470  Energy decrease:   0.00000003
 ======================================================================
 Norm of residual vector:     0.00016352
 CPU time [min]:    66.143                   Wall time [min]:    59.557
 
 Iteration 17  CC energy:   -75.05935467  Energy decrease:   0.00000002
 ======================================================================
 Norm of residual vector:     0.00011530
 CPU time [min]:    69.524                   Wall time [min]:    62.424
 
 Iteration 18  CC energy:   -75.05935471  Energy decrease:   0.00000003
 ======================================================================
 Norm of residual vector:     0.00006164
 CPU time [min]:    72.892                   Wall time [min]:    65.268
 
 Iteration 19  CC energy:   -75.05935469  Energy decrease:   0.00000002
 ======================================================================
 Norm of residual vector:     0.00003031
 CPU time [min]:    76.474                   Wall time [min]:    68.176
 
 Iteration 20  CC energy:   -75.05935469  Energy decrease:   3.7235E-09
 ======================================================================
 Norm of residual vector:     0.00001176
 CPU time [min]:    79.811                   Wall time [min]:    71.004
 
 Iteration 21  CC energy:   -75.05935469  Energy decrease:   2.3979E-10
 ======================================================================
 Norm of residual vector:     0.00000403
 CPU time [min]:    83.220                   Wall time [min]:    73.863
 
 Iteration 22  CC energy:   -75.05935469  Energy decrease:   1.4157E-10
 ======================================================================
 Norm of residual vector:     0.00000085
 CPU time [min]:    86.517                   Wall time [min]:    76.666
 
 Iteration 23  CC energy:   -75.05935469  Energy decrease:   1.3912E-11
 ======================================================================
 
 Iteration has converged in 23 steps.
 
 Final results:
 Total CCSD energy [au]:                      -75.059354694401
 
 Perturbative corrections are calculated...
 ======================================================================
 Spin case  1   Alpha:  0   Beta:  3
 Number of excitations:        320825
 ispcorr1 :     0.000000000000
 ispcorr2 :     0.000000000000
 corr1    :     0.000000000000
 corr2    :     0.000000000000
 CPU time [min]:    86.925                   Wall time [min]:    76.816
 ======================================================================
 Spin case  2   Alpha:  1   Beta:  2
 Number of excitations:        14475407
 ispcorr1 :     0.000000000000
 ispcorr2 :     0.000000000000
 corr1    :     0.000000000000
 corr2    :     0.000000000000
 CPU time [min]:    90.199                   Wall time [min]:    77.659
 ======================================================================
 Spin case  3   Alpha:  2   Beta:  1
 Number of excitations:        28536702
 ispcorr1 :     0.000000000000
 ispcorr2 :     0.000000000000
 corr1    :     0.000000000000
 corr2    :     0.000000000000
 CPU time [min]:    95.460                   Wall time [min]:    79.029
 ======================================================================
 Spin case  4   Alpha:  3   Beta:  0
 Number of excitations:        3082052
 ispcorr1 :     0.000000000000
 ispcorr2 :     0.000000000000
 corr1    :     0.000000000000
 corr2    :     0.000000000000
 CPU time [min]:    96.374                   Wall time [min]:    79.337
 ======================================================================
 Number of 3-fold excitations: 46414986
 
 corr1 :     0.000007383025
 corr3 :     0.000000000000
 corr4 :     0.000000000000
 corr2 :    -0.000004396246
 
 corr1 :     0.000459811311
 corr3 :     0.000000000000
 corr4 :     0.000000000000
 corr2 :    -0.001175524970
 
 corr1 :     0.001343214378
 corr3 :     0.000000000000
 corr4 :     0.000000000000
 corr2 :    -0.004514730587
 
 corr1 :     0.001353986780
 corr3 :     0.000000000000
 corr4 :     0.000000000000
 corr2 :    -0.004759068852
 
 CPU time [min]:    96.376                   Wall time [min]:    79.364
 
 Total CCSD[T] energy [au]:                   -75.064113763254
 Total CCSD(T) energy [au]:                   -75.062759776474
 
 Dominant cluster amplitudes
 Printing threshold:  1.00E-02
 
    1.000000  Reference determinant                                     
    0.032920  2b -> 11b                                                 
    0.013474  2b -> 15b                                                 
   -0.026048  2b -> 27b                                                 
    0.010367  2b -> 31b                                                 
    0.471868  3b -> 7b                                                  
    0.153267  3b -> 16b                                                 
    0.042623  3b -> 32b                                                 
   -0.017440  2a -> 15a                                                 
   -0.010376  2a -> 27a                                                 
    0.021898  2a -> 31a                                                 
   -0.020939  3a -> 7a                                                  
    0.013280  3a -> 23a                                                 
    0.010246  3a -> 48a                                                 
    0.028975  5a -> 9a                                                  
   -0.027766  5a -> 18a                                                 
    0.014148  5a -> 25a                                                 
    0.011514  5a -> 34a                                                 
    0.011107  5a -> 50a                                                 
   -0.012341  2b 3b -> 4b 12b                                           
   -0.015192  2b 3b -> 5b 14b                                           
   -0.012485  2b 3b -> 5b 30b                                           
   -0.010052  2a 2b -> 26a 26b                                          
   -0.011733  3a 3b -> 11a 15b                                          
   -0.010296  3a 3b -> 11a 31b                                          
   -0.013198  3a 3b -> 27a 31b                                          
   -0.011782  3a 3b -> 14a 14b                                          
   -0.010106  3a 3b -> 14a 30b                                          
   -0.013232  3a 3b -> 30a 30b                                          
   -0.011760  3a 3b -> 12a 12b                                          
   -0.010351  3a 3b -> 12a 28b                                          
   -0.013236  3a 3b -> 28a 28b                                          
   -0.023408  3a 3b -> 7a 7b                                            
    0.024670  3a 3b -> 16a 7b                                           
   -0.010349  3a 3b -> 32a 7b                                           
   -0.026685  3a 3b -> 7a 16b                                           
    0.033268  3a 3b -> 16a 16b                                          
   -0.018037  3a 3b -> 32a 16b                                          
   -0.012099  3a 3b -> 7a 32b                                           
    0.018921  3a 3b -> 16a 32b                                          
   -0.016051  3a 3b -> 32a 32b                                          
   -0.011612  2a 2b -> 9a 5b                                            
    0.011934  2a 2b -> 18a 5b                                           
   -0.016987  5a 3b -> 7a 5b                                            
    0.011167  5a 3b -> 16a 5b                                           
   -0.016111  5a 3b -> 9a 7b                                            
    0.018772  5a 3b -> 18a 7b                                           
   -0.017865  5a 3b -> 9a 16b                                           
    0.024176  5a 3b -> 18a 16b                                          
   -0.014068  5a 3b -> 34a 16b                                          
    0.013660  5a 3b -> 18a 32b                                          
   -0.011584  5a 3b -> 34a 32b                                          
   -0.012506  4a 3b -> 7a 4b                                            
   -0.010226  4a 3b -> 7a 8b                                            
   -0.016252  4a 3b -> 8a 7b                                            
    0.018428  4a 3b -> 17a 7b                                           
   -0.018167  4a 3b -> 8a 16b                                           
    0.023900  4a 3b -> 17a 16b                                          
   -0.013783  4a 3b -> 33a 16b                                          
    0.013621  4a 3b -> 17a 32b                                          
   -0.011452  4a 3b -> 33a 32b                                          
   -0.013487  2a 3b -> 10a 7b                                           
    0.010076  2a 3b -> 6a 16b                                           
   -0.018081  2a 3b -> 10a 16b                                          
    0.015848  2a 3b -> 26a 16b                                          
   -0.010266  2a 3b -> 10a 32b                                          
    0.011965  2a 3b -> 26a 32b                                          
   -0.012815  2a 3b -> 30a 5b                                           
   -0.021394  3a 2b -> 14a 5b                                           
   -0.023454  3a 2b -> 30a 5b                                           
   -0.010477  3a 2b -> 54a 5b                                           
   -0.010119  2a 3b -> 28a 4b                                           
   -0.017724  3a 2b -> 12a 4b                                           
   -0.018332  3a 2b -> 28a 4b                                           
   -0.011832  3a 2b -> 12a 8b                                           
   -0.013641  3a 2b -> 28a 8b                                           
   -0.010281  3a 2b -> 7a 10b                                           
    0.013868  3a 2b -> 16a 10b                                          
   -0.012406  3a 2b -> 16a 26b                                          
    0.010000  3a 2b -> 32a 26b                                          
    0.017949  4a 2b -> 11a 4b                                           
   -0.010994  4a 2b -> 15a 4b                                           
    0.018412  4a 2b -> 27a 4b                                           
    0.011334  4a 2b -> 31a 4b                                           
    0.012073  4a 2b -> 11a 8b                                           
    0.013685  4a 2b -> 27a 8b                                           
   -0.022075  4a 2b -> 13a 5b                                           
   -0.024175  4a 2b -> 29a 5b                                           
   -0.010703  4a 2b -> 53a 5b                                           
    0.013667  4a 2b -> 17a 10b                                          
   -0.012269  4a 2b -> 17a 26b                                          
    0.010042  4a 2b -> 33a 26b                                          
   -0.014132  5a 2b -> 10a 5b                                           
    0.024683  5a 2b -> 15a 5b                                           
   -0.027587  5a 2b -> 31a 5b                                           
    0.012374  5a 2b -> 55a 5b                                           
   -0.018168  5a 2b -> 13a 4b                                           
   -0.019059  5a 2b -> 29a 4b                                           
   -0.012185  5a 2b -> 13a 8b                                           
   -0.014140  5a 2b -> 29a 8b                                           
    0.013832  5a 2b -> 18a 10b                                          
   -0.012431  5a 2b -> 18a 26b                                          
    0.010156  5a 2b -> 34a 26b                                          
    0.010247  4a 5a -> 8a 18a                                           
   -0.014405  4a 5a -> 17a 18a                                          
   -0.010424  4a 5a -> 29a 31a                                          
    0.010799  3a 5a -> 7a 18a                                           
   -0.014105  3a 5a -> 16a 18a                                          
   -0.010506  3a 5a -> 30a 31a                                          
   -0.010378  3a 4a -> 11a 12a                                          
    0.010618  3a 4a -> 7a 17a                                           
   -0.013950  3a 4a -> 16a 17a                                          
   -0.012181  3a 4a -> 27a 28a                                          

 ************************ 2025-09-09 08:30:24 *************************
 Executing goldstone...

 Generation of CC equations in terms of H and T...
 Generation of antisymmetrized Goldstone diagrams...
 Number of diagrams in T^1 equations:    15
 Number of diagrams in T^2 equations:    38
 Number of diagrams in T^3 equations:    50
 Number of diagrams in T^4 equations:     5
 Translation of diagrams to factorized equations...
 Optimizing intermediate calculation...
 Number of floating-point operations per iteration step:   6.6667E+13
 Probable CPU time per iteration step (hours):          666.67
 Required memory (Mbytes):        492530.4
 Number of intermediates:                                  80
 Number of intermediates to be stored:                     32
 Length of intermediate file (Mbytes):          7960.9

 ************************ 2025-09-09 08:30:32 *************************
 Executing xmrcc...

 **********************************************************************
 CC(3)(4) calculation 
 
 
 Allocation of        35840.0 Mbytes of memory...
 Number of spinorbitals:                   504
 Number of alpha electrons:                        5
 Number of beta electrons:                         3
 Spin multiplicity:                     2
 z-component of spin:  1.0
 Spatial symmetry:                      2
 Convergence criterion:  1.0E-06
 Construction of occupation graphs...
 Number of                     0 -fold excitations:                      1
 Number of                     1 -fold excitations:                    376
 Number of                     2 -fold excitations:                 176407
 Number of                     3 -fold excitations:               46414986
 Total number of configurations:               46591770
 Calculation of coupling coefficients...
 Length of intermediate file (Mbytes):          6042.4
 
 ======================================================================
 
 Spin case  1   Alpha:  1   Beta:  3
 Number of excitations:              392963211
 Spin case  2   Alpha:  2   Beta:  2
 Number of excitations:             3520883652
 Spin case  3   Alpha:  3   Beta:  1
 Number of excitations:             2313957507
 Spin case  4   Alpha:  4   Beta:  0
 Number of excitations:               94257730
 Number of                     4 -fold excitations:             6322062100
 
 Memory requirements /Mbyte/: 
               Minimal        Optimal
 Real*8:      14431.1046     30769.4438
 Integer:      1272.5218
 Total:       15703.6264     32041.9656
 

 ************************ 2025-09-09 08:32:03 *************************
 Executing mrcc...

 **********************************************************************
 CCSDT(Q) calculation                                                   
 
 
 OpenMP parallel version is running.
 Number of CPU cores:   4
 Allocation of        30769.4 Mbytes of memory...
 Number of spinorbitals: 504
 Number of alpha electrons:  5
 Number of beta  electrons:  3
 Spin multiplicity: 3
 z-component of spin:  1.0
 Spatial symmetry: 2
 Convergence criterion:  1.0E-06
 Construction of occupation graphs...
 Number of 0-fold excitations: 1
 Number of 1-fold excitations: 376
 Number of 2-fold excitations: 176407
 Number of 3-fold excitations: 46414986
 Total number of determinants: 46591770
 Calculation of coupling coefficients...
 Initial cluster amplitudes are read from unit 16.
 Length of intermediate file (Mbytes):    6042.4
 Reading integral list from unit 55...
 Sorting integrals...
 Sorting integrals...
 Sorting integrals...
 Sorting integrals...
 Energy of reference determinant [au]:     -74.702376421885
 Calculation of MP denominators...
 
 Starting CC iteration...
 ======================================================================
 Norm of residual vector:     0.32024040
 CPU time [min]:    37.724                   Wall time [min]:    22.198
 
 Iteration  1  CC energy:   -75.05935469  Energy decrease:   3.8654E-12
 ======================================================================
 Norm of residual vector:     0.04277666
 CPU time [min]:    65.566                   Wall time [min]:    33.869
 
 Iteration  2  CC energy:   -75.06320522  Energy decrease:   0.00385053
 ======================================================================
 Norm of residual vector:     0.18557279
 CPU time [min]:    94.500                   Wall time [min]:    46.146
 
 Iteration  3  CC energy:   -75.06382294  Energy decrease:   0.00061772
 ======================================================================
 Norm of residual vector:     2.85445978
 CPU time [min]:   121.101                   Wall time [min]:    57.301
 
 Iteration  4  CC energy:   -75.06384151  Energy decrease:   0.00001857
 ======================================================================
 Norm of residual vector:     7.07984250
 CPU time [min]:   147.516                   Wall time [min]:    68.237
 
 Iteration  5  CC energy:   -75.06404786  Energy decrease:   0.00020635
 ======================================================================
 Norm of residual vector:     0.45486050
 CPU time [min]:   173.965                   Wall time [min]:    79.049
 
 Iteration  6  CC energy:   -75.06407827  Energy decrease:   0.00003041
 ======================================================================
 Norm of residual vector:     4.41471019
 CPU time [min]:   200.460                   Wall time [min]:    90.306
 
 Iteration  7  CC energy:   -75.06410922  Energy decrease:   0.00003095
 ======================================================================
 Norm of residual vector:     0.41365380
 CPU time [min]:   225.804                   Wall time [min]:   101.791
 
 Iteration  8  CC energy:   -75.06411512  Energy decrease:   0.00000590
 ======================================================================
 Norm of residual vector:     1.53603074
 CPU time [min]:   249.957                   Wall time [min]:   112.075
 
 Iteration  9  CC energy:   -75.06414650  Energy decrease:   0.00003138
 ======================================================================
 Norm of residual vector:     0.63340826
 CPU time [min]:   274.028                   Wall time [min]:   122.197
 
 Iteration 10  CC energy:   -75.06414668  Energy decrease:   0.00000018
 ======================================================================
 Norm of residual vector:     0.34257551
 CPU time [min]:   299.249                   Wall time [min]:   133.299
 
 Iteration 11  CC energy:   -75.06415352  Energy decrease:   0.00000684
 ======================================================================
 Norm of residual vector:     0.94664412
 CPU time [min]:   324.204                   Wall time [min]:   146.773
 
 Iteration 12  CC energy:   -75.06415714  Energy decrease:   0.00000362
 ======================================================================
 Norm of residual vector:     0.22097922
 CPU time [min]:   349.099                   Wall time [min]:   157.609
 
 Iteration 13  CC energy:   -75.06415712  Energy decrease:   0.00000002
 ======================================================================
 Norm of residual vector:     0.28091303
 CPU time [min]:   373.979                   Wall time [min]:   169.279
 
 Iteration 14  CC energy:   -75.06415809  Energy decrease:   0.00000096
 ======================================================================
 Norm of residual vector:     0.47204418
 CPU time [min]:   399.025                   Wall time [min]:   180.069
 
 Iteration 15  CC energy:   -75.06415883  Energy decrease:   0.00000074
 ======================================================================
 Norm of residual vector:     0.15482841
 CPU time [min]:   424.031                   Wall time [min]:   190.646
 
 Iteration 16  CC energy:   -75.06415892  Energy decrease:   0.00000009
 ======================================================================
 Norm of residual vector:     0.12161158
 CPU time [min]:   449.068                   Wall time [min]:   202.030
 
 Iteration 17  CC energy:   -75.06415735  Energy decrease:   0.00000157
 ======================================================================
 Norm of residual vector:     0.24422568
 CPU time [min]:   474.320                   Wall time [min]:   213.045
 
 Iteration 18  CC energy:   -75.06415614  Energy decrease:   0.00000121
 ======================================================================
 Norm of residual vector:     0.11457435
 CPU time [min]:   500.038                   Wall time [min]:   224.493
 
 Iteration 19  CC energy:   -75.06415613  Energy decrease:   0.00000001
 ======================================================================
 Norm of residual vector:     0.04314542
 CPU time [min]:   525.085                   Wall time [min]:   234.915
 
 Iteration 20  CC energy:   -75.06415594  Energy decrease:   0.00000019
 ======================================================================
 Norm of residual vector:     0.07676415
 CPU time [min]:   550.570                   Wall time [min]:   245.777
 
 Iteration 21  CC energy:   -75.06415511  Energy decrease:   0.00000083
 ======================================================================
 Norm of residual vector:     0.07618964
 CPU time [min]:   577.068                   Wall time [min]:   258.214
 
 Iteration 22  CC energy:   -75.06415485  Energy decrease:   0.00000026
 ======================================================================
 Norm of residual vector:     0.03348986
 CPU time [min]:   602.965                   Wall time [min]:   269.657
 
 Iteration 23  CC energy:   -75.06415483  Energy decrease:   0.00000002
 ======================================================================
 Norm of residual vector:     0.02214309
 CPU time [min]:   628.447                   Wall time [min]:   283.106
 
 Iteration 24  CC energy:   -75.06415483  Energy decrease:   4.8257E-09
 ======================================================================
 Norm of residual vector:     0.03939334
 CPU time [min]:   654.182                   Wall time [min]:   295.164
 
 Iteration 25  CC energy:   -75.06415480  Energy decrease:   0.00000003
 ======================================================================
 Norm of residual vector:     0.02431528
 CPU time [min]:   680.372                   Wall time [min]:   306.624
 
 Iteration 26  CC energy:   -75.06415480  Energy decrease:   0.00000001
 ======================================================================
 Norm of residual vector:     0.01216499
 CPU time [min]:   706.858                   Wall time [min]:   319.184
 
 Iteration 27  CC energy:   -75.06415480  Energy decrease:   1.5942E-10
 ======================================================================
 Norm of residual vector:     0.01267080
 CPU time [min]:   733.126                   Wall time [min]:   330.621
 
 Iteration 28  CC energy:   -75.06415480  Energy decrease:   0.00000001
 ======================================================================
 Norm of residual vector:     0.01852845
 CPU time [min]:   759.848                   Wall time [min]:   343.609
 
 Iteration 29  CC energy:   -75.06415480  Energy decrease:   1.9286E-09
 ======================================================================
 Norm of residual vector:     0.01300083
 CPU time [min]:   786.470                   Wall time [min]:   355.607
 
 Iteration 30  CC energy:   -75.06415480  Energy decrease:   1.0648E-09
 ======================================================================
 Norm of residual vector:     0.00575792
 CPU time [min]:   812.838                   Wall time [min]:   367.023
 
 Iteration 31  CC energy:   -75.06415480  Energy decrease:   6.4119E-11
 ======================================================================
 Norm of residual vector:     0.00644437
 CPU time [min]:   839.438                   Wall time [min]:   378.713
 
 Iteration 32  CC energy:   -75.06415480  Energy decrease:   1.0043E-09
 ======================================================================
 Norm of residual vector:     0.00957149
 CPU time [min]:   866.058                   Wall time [min]:   389.989
 
 Iteration 33  CC energy:   -75.06415480  Energy decrease:   2.8118E-10
 ======================================================================
 Norm of residual vector:     0.00639963
 CPU time [min]:   893.069                   Wall time [min]:   401.755
 
 Iteration 34  CC energy:   -75.06415480  Energy decrease:   1.1783E-09
 ======================================================================
 Norm of residual vector:     0.00386997
 CPU time [min]:   919.793                   Wall time [min]:   413.184
 
 Iteration 35  CC energy:   -75.06415480  Energy decrease:   2.7072E-11
 ======================================================================
 Norm of residual vector:     0.00395512
 CPU time [min]:   946.962                   Wall time [min]:   424.795
 
 Iteration 36  CC energy:   -75.06415480  Energy decrease:   1.6691E-09
 ======================================================================
 Norm of residual vector:     0.00515554
 CPU time [min]:   973.975                   Wall time [min]:   436.248
 
 Iteration 37  CC energy:   -75.06415480  Energy decrease:   2.1531E-10
 ======================================================================
 Norm of residual vector:     0.00384365
 CPU time [min]:  1001.089                   Wall time [min]:   447.799
 
 Iteration 38  CC energy:   -75.06415480  Energy decrease:   1.0415E-09
 ======================================================================
 Norm of residual vector:     0.00245250
 CPU time [min]:  1028.007                   Wall time [min]:   459.040
 
 Iteration 39  CC energy:   -75.06415480  Energy decrease:   1.0855E-09
 ======================================================================
 Norm of residual vector:     0.00192717
 CPU time [min]:  1055.384                   Wall time [min]:   471.194
 
 Iteration 40  CC energy:   -75.06415480  Energy decrease:   2.8933E-09
 ======================================================================
 Norm of residual vector:     0.00252617
 CPU time [min]:  1082.747                   Wall time [min]:   483.266
 
 Iteration 41  CC energy:   -75.06415481  Energy decrease:   0.00000001
 ======================================================================
 Norm of residual vector:     0.00205095
 CPU time [min]:  1110.628                   Wall time [min]:   495.489
 
 Iteration 42  CC energy:   -75.06415482  Energy decrease:   2.6374E-09
 ======================================================================
 Norm of residual vector:     0.00099047
 CPU time [min]:  1138.343                   Wall time [min]:   507.402
 
 Iteration 43  CC energy:   -75.06415482  Energy decrease:   1.4154E-10
 ======================================================================
 Norm of residual vector:     0.00083066
 CPU time [min]:  1166.275                   Wall time [min]:   519.384
 
 Iteration 44  CC energy:   -75.06415482  Energy decrease:   2.5210E-10
 ======================================================================
 Norm of residual vector:     0.00123035
 CPU time [min]:  1193.803                   Wall time [min]:   531.073
 
 Iteration 45  CC energy:   -75.06415482  Energy decrease:   3.2708E-10
 ======================================================================
 Norm of residual vector:     0.00120901
 CPU time [min]:  1221.752                   Wall time [min]:   542.949
 
 Iteration 46  CC energy:   -75.06415482  Energy decrease:   8.9544E-10
 ======================================================================
 Norm of residual vector:     0.00068173
 CPU time [min]:  1250.456                   Wall time [min]:   555.722
 
 Iteration 47  CC energy:   -75.06415482  Energy decrease:   2.6017E-10
 ======================================================================
 Norm of residual vector:     0.00035279
 CPU time [min]:  1279.024                   Wall time [min]:   568.424
 
 Iteration 48  CC energy:   -75.06415482  Energy decrease:   2.3925E-10
 ======================================================================
 Norm of residual vector:     0.00047795
 CPU time [min]:  1307.274                   Wall time [min]:   580.512
 
 Iteration 49  CC energy:   -75.06415482  Energy decrease:   7.9099E-10
 ======================================================================
 Norm of residual vector:     0.00054255
 CPU time [min]:  1335.462                   Wall time [min]:   592.682
 
 Iteration 50  CC energy:   -75.06415482  Energy decrease:   4.2978E-10
 ======================================================================
 Norm of residual vector:     0.00035257
 CPU time [min]:  1363.902                   Wall time [min]:   604.898
 
 Iteration 51  CC energy:   -75.06415482  Energy decrease:   2.0322E-12
 ======================================================================
 Norm of residual vector:     0.00025660
 CPU time [min]:  1392.109                   Wall time [min]:   616.941
 
 Iteration 52  CC energy:   -75.06415482  Energy decrease:   2.2766E-11
 ======================================================================
 Norm of residual vector:     0.00029181
 CPU time [min]:  1420.194                   Wall time [min]:   628.716
 
 Iteration 53  CC energy:   -75.06415482  Energy decrease:   1.9561E-10
 ======================================================================
 Norm of residual vector:     0.00034908
 CPU time [min]:  1449.634                   Wall time [min]:   642.499
 
 Iteration 54  CC energy:   -75.06415482  Energy decrease:   1.2534E-10
 ======================================================================
 Norm of residual vector:     0.00031723
 CPU time [min]:  1478.348                   Wall time [min]:   655.105
 
 Iteration 55  CC energy:   -75.06415482  Energy decrease:   1.4327E-10
 ======================================================================
 Norm of residual vector:     0.00022632
 CPU time [min]:  1507.765                   Wall time [min]:   668.086
 
 Iteration 56  CC energy:   -75.06415482  Energy decrease:   4.4267E-11
 ======================================================================
 Norm of residual vector:     0.00014839
 CPU time [min]:  1536.886                   Wall time [min]:   680.706
 
 Iteration 57  CC energy:   -75.06415482  Energy decrease:   2.9559E-12
 ======================================================================
 Norm of residual vector:     0.00015682
 CPU time [min]:  1565.242                   Wall time [min]:   692.662
 
 Iteration 58  CC energy:   -75.06415482  Energy decrease:   4.9454E-11
 ======================================================================
 Norm of residual vector:     0.00017762
 CPU time [min]:  1594.225                   Wall time [min]:   705.153
 
 Iteration 59  CC energy:   -75.06415482  Energy decrease:   9.4616E-11
 ======================================================================
 Norm of residual vector:     0.00011361
 CPU time [min]:  1622.913                   Wall time [min]:   717.320
 
 Iteration 60  CC energy:   -75.06415482  Energy decrease:   7.3015E-11
 ======================================================================
 Norm of residual vector:     0.00006634
 CPU time [min]:  1651.970                   Wall time [min]:   729.677
 
 Iteration 61  CC energy:   -75.06415482  Energy decrease:   1.2506E-12
 ======================================================================
 Norm of residual vector:     0.00006690
 CPU time [min]:  1680.991                   Wall time [min]:   742.411
 
 Iteration 62  CC energy:   -75.06415482  Energy decrease:   2.8707E-10
 ======================================================================
 Norm of residual vector:     0.00008770
 CPU time [min]:  1710.050                   Wall time [min]:   754.938
 
 Iteration 63  CC energy:   -75.06415482  Energy decrease:   1.4661E-10
 ======================================================================
 Norm of residual vector:     0.00006587
 CPU time [min]:  1739.655                   Wall time [min]:   767.824
 
 Iteration 64  CC energy:   -75.06415482  Energy decrease:   3.9762E-11
 ======================================================================
 Norm of residual vector:     0.00004729
 CPU time [min]:  1769.092                   Wall time [min]:   780.409
 
 Iteration 65  CC energy:   -75.06415482  Energy decrease:   2.1458E-12
 ======================================================================
 Norm of residual vector:     0.00004473
 CPU time [min]:  1798.534                   Wall time [min]:   793.248
 
 Iteration 66  CC energy:   -75.06415482  Energy decrease:   6.6649E-12
 ======================================================================
 Norm of residual vector:     0.00005405
 CPU time [min]:  1827.950                   Wall time [min]:   805.786
 
 Iteration 67  CC energy:   -75.06415482  Energy decrease:   2.7711E-12
 ======================================================================
 Norm of residual vector:     0.00005255
 CPU time [min]:  1857.830                   Wall time [min]:   818.657
 
 Iteration 68  CC energy:   -75.06415482  Energy decrease:   3.2117E-12
 ======================================================================
 Norm of residual vector:     0.00004068
 CPU time [min]:  1888.237                   Wall time [min]:   831.904
 
 Iteration 69  CC energy:   -75.06415482  Energy decrease:   4.6043E-12
 ======================================================================
 Norm of residual vector:     0.00002882
 CPU time [min]:  1918.962                   Wall time [min]:   846.426
 
 Iteration 70  CC energy:   -75.06415482  Energy decrease:   2.1174E-12
 ======================================================================
 Norm of residual vector:     0.00002537
 CPU time [min]:  1949.595                   Wall time [min]:   860.009
 
 Iteration 71  CC energy:   -75.06415482  Energy decrease:   7.8586E-12
 ======================================================================
 Norm of residual vector:     0.00003022
 CPU time [min]:  1979.983                   Wall time [min]:   873.321
 
 Iteration 72  CC energy:   -75.06415482  Energy decrease:   1.5987E-11
 ======================================================================
 Norm of residual vector:     0.00002689
 CPU time [min]:  2010.966                   Wall time [min]:   886.791
 
 Iteration 73  CC energy:   -75.06415482  Energy decrease:   7.4465E-12
 ======================================================================
 Norm of residual vector:     0.00001828
 CPU time [min]:  2041.963                   Wall time [min]:   900.382
 
 Iteration 74  CC energy:   -75.06415482  Energy decrease:   8.5265E-14
 ======================================================================
 Norm of residual vector:     0.00001240
 CPU time [min]:  2072.829                   Wall time [min]:   913.742
 
 Iteration 75  CC energy:   -75.06415482  Energy decrease:   2.1316E-13
 ======================================================================
 Norm of residual vector:     0.00001297
 CPU time [min]:  2104.290                   Wall time [min]:   927.586
 
 Iteration 76  CC energy:   -75.06415482  Energy decrease:   6.4659E-12
 ======================================================================
 Norm of residual vector:     0.00001424
 CPU time [min]:  2135.957                   Wall time [min]:   941.662
 
 Iteration 77  CC energy:   -75.06415482  Energy decrease:   3.6522E-12
 ======================================================================
 Norm of residual vector:     0.00000930
 CPU time [min]:  2167.607                   Wall time [min]:   955.685
 
 Iteration 78  CC energy:   -75.06415482  Energy decrease:   3.4106E-13
 ======================================================================
 Norm of residual vector:     0.00000516
 CPU time [min]:  2198.933                   Wall time [min]:   969.237
 
 Iteration 79  CC energy:   -75.06415482  Energy decrease:   1.8474E-13
 ======================================================================
 Norm of residual vector:     0.00000548
 CPU time [min]:  2230.446                   Wall time [min]:   983.159
 
 Iteration 80  CC energy:   -75.06415482  Energy decrease:   4.1069E-12
 ======================================================================
 Norm of residual vector:     0.00000730
 CPU time [min]:  2261.900                   Wall time [min]:   996.830
 
 Iteration 81  CC energy:   -75.06415482  Energy decrease:   5.5138E-12
 ======================================================================
 Norm of residual vector:     0.00000518
 CPU time [min]:  2293.459                   Wall time [min]:  1010.988
 
 Iteration 82  CC energy:   -75.06415482  Energy decrease:   7.3896E-13
 ======================================================================
 Norm of residual vector:     0.00000328
 CPU time [min]:  2325.320                   Wall time [min]:  1025.066
 
 Iteration 83  CC energy:   -75.06415482  Energy decrease:   7.1054E-14
 ======================================================================
 Norm of residual vector:     0.00000260
 CPU time [min]:  2357.259                   Wall time [min]:  1038.914
 
 Iteration 84  CC energy:   -75.06415482  Energy decrease:   9.6634E-13
 ======================================================================
 Norm of residual vector:     0.00000357
 CPU time [min]:  2389.548                   Wall time [min]:  1053.597
 
 Iteration 85  CC energy:   -75.06415482  Energy decrease:   2.7427E-12
 ======================================================================
 Norm of residual vector:     0.00000313
 CPU time [min]:  2421.075                   Wall time [min]:  1067.504
 
 Iteration 86  CC energy:   -75.06415482  Energy decrease:   1.6058E-12
 ======================================================================
 Norm of residual vector:     0.00000155
 CPU time [min]:  2452.794                   Wall time [min]:  1081.320
 
 Iteration 87  CC energy:   -75.06415482  Energy decrease:   3.4106E-13
 ======================================================================
 Norm of residual vector:     0.00000099
 CPU time [min]:  2484.619                   Wall time [min]:  1095.393
 
 Iteration 88  CC energy:   -75.06415482  Energy decrease:   8.2423E-13
 ======================================================================
 
 Iteration has converged in 88 steps.
 
 Final results:
 Total CCSDT energy [au]:                     -75.064154817201
 
 Perturbative corrections are calculated...
 ======================================================================
 Spin case  1   Alpha:  1   Beta:  3
 Number of excitations:        392963211
 ispcorr1 :     0.000000000000
 ispcorr2 :     0.000000000000
 corr1    :     0.000000000000
 corr2    :     0.000000000000
 CPU time [min]:  4142.737                   Wall time [min]:  1521.794
 ======================================================================
 Spin case  2   Alpha:  2   Beta:  2
 Number of excitations:        3520883652
 ispcorr1 :     0.000000000000
 ispcorr2 :     0.000000000000
 corr1    :     0.000000000000
 corr2    :     0.000000000000
 CPU time [min]:  8616.355                   Wall time [min]:  2676.824
 ======================================================================
 Spin case  3   Alpha:  3   Beta:  1
 Number of excitations:        2313957507
