Starting run at: Sun 24 Aug 2025 05:06:02 AM EDT
 **********************************************************************
                          MRCC program system
 **********************************************************************
 
                              Written by
     Mihaly Kallay, Peter R. Nagy, David Mester, Laszlo Gyevi-Nagy,
        Jozsef Csoka, P. Bernat Szabo, Zoltan Rolik, Gyula Samu,
      Bence Hegely, Bence Ladoczki, Klara Petrov, Jozsef Csontos,
     Adam Ganyecz, Istvan Ladjanszki, Lorant Szegedy, Mate Farkas,
          Pal D. Mezei, Reka A. Horvath, and Balazs D. Lorincz
 
        Department of Physical Chemistry and Materials Science
            Budapest University of Technology and Economics
                  Budapest P.O.Box 91, H-1521 Hungary
 
                              www.mrcc.hu
 
                            Version: 25.1.1

 ************************ 2025-08-24 05:06:02 *************************
 Executing minp...

 Reading input from MINP...
 
 Input file:
 
basis=aCV6Z-MOLP-U
iface=cfour
uncontract=off
calc=CCSDT(Q)
ccprog=mrcc
mem=35GB
core=corr
itol=18
scftol=13
cctol=6
ccmaxit=999
scfmaxit=9999
scfiguess=ao
scftype=UHF
#rohftype=semicanonical
rest=2
charge=+0
mult=3
refdet=serialno
1-3
4,5

symm=2
occ=2,0,0,0,0,1,1,1/2,0,0,0,0,0,0,1
geom
O

#Li 1 R
#R=3.065

#unit=angstroms

tprint=0.01
verbosity=3
#nstate=4
 
 
 Checking keyword combinations...
 
 Keywords:
 
 active=none
 agrid=ld0006-ld0590
 agrid_pssp=ld0006-ld0194
 agrid_pssp_sm=ld0006-ld0074
 basis=acv6z-molp-u
 basis_sm=none
 basopt=off
 bfbasis=none
 bfgsmem=10
 bfgstol=1.0d-3
 boysalg=jacobi
 bpcompo=0.985
 bpcompv=0.98
 bpdfo=0.985
 bpocc=0.985
 bppdo=0.985
 bppdv=0.98
 bpedo=0.985
 bpedv=0.98
 bp_subsyso=0.95
 bp_subsysv=0.95
 cabscorr=off
 cabsdual=off
 calc=ccsdt(q)
 ccmaxit=999
 ccprog=mrcc
 ccsdalg=disk
 ccsdmkl=seq
 ccsdrest=off
 ccsdthreads=2
 cctol=6
 charge=+0
 cialg=disk
 ciguess=off
 cmpgrp=auto
 comprest=off
 coord_sys=ric
 core=corr
 corembed=off
 csapprox=off
 cvs=off
 dboc=off
 deltaf12=off
 delocsomofact=
 dendec=cholesky
 dens=0
 denscorr=0
 dfalg=lineq
 dfbasis_cab=none
 dfbasis_cor=none
 dfbasis_scf=none
 dfbasis_scf_sm=auto
 dfintran=ovirt
 dft=off
 dhexc=adc(2)
 diag=david
 docc=
 domrad=10.d0
 drpaalg=fit
 dual=off
 dual_df=off
 dyson=off
 ecp=auto
 edisp=off
 edisp_embed=off
 embed=off
 epairestfact=off
 epairscale=1.d0
 etemp=300
 epert=none
 eps=
 espcharge=off
 excrad=0.d0
 excrad_f12=0.d0
 excrad_fin=0.000000000D+00
 fastdbbsc=v2
 fitting=coulomb
 fmm=off
 fmmord=8
 fnonorb=
 freq=off
 gamma=1.d0
 gauss=spher
 geom=zmat
 gopt=off
 ghost=none
 gtol=7
 grdens=off
 grid=auto
 grid_sm=auto
 gridbatch_cos=2000
 grtol=10
 guido_ct=off
 hamilton=dc
 iface=cfour
 incore=off
 intalg=auto
 ip_ea=off
 itol=18
 laptol=1.d-2
 lccoporder=trffirst
 lcorthr=normal
 lccrest=off
 ldfgrad_tol=8
 lmp2dens=on
 lnoepso=0.d0
 lnoepsv=1e-6
 localcc=off
 localcorrsymm=off
 locintrf=disk
 mact=
 maxact=off
 maxdim=200
 maxex=0
 maxmicroit=100
 mcscfiguess=hf
 mem=35gb
 mmprog=
 molden=on
 mp2ongrid=off
 mpitasks=1
 mulmet=0
 mult=3
 nab=off
 nacto=0
 nactv=0
 naf_amp=3.16d-3
 naf_cor=off
 naf_f12=off
 naf_scf=off
 nafalg=albe
 nafdens=off
 naftyp=
 nchol=auto
 ndeps=1e-3
 nstate=1
 nsing=0
 nto=off
 ntrip=0
 num_grad=off
 occ=2,0,0,0,0,1,1,1/2,0,0,0,0,0,0,1
 occri=off
 oniom=off
 oniom_eechg=off
 oniom_pcm=off
 oniom_qcorr=off
 optalg=
 optmaxit=50
 optetol=1e-6
 optex=0
 optgtol=1e-4
 optstol=1e-3
 orblocc=off
 orbloce=off
 orbloco=off
 orblocv=off
 orblocguess=cholesky
 osveps=1e-3
 ovirt=off
 ovltol=1e-7
 ovosnorb=80.0
 pao_subsys_tol=1e-3
 pao_tol=1e-3
 pcm=off
 popul=off
 pressure=100000
 pssp=off
 ptfreq=0.0
 ptthreads=2
 qmreg=
 qmmm=off
 qro=off
 qscf=off
 redcost_exc=off
 redcost_tddft=off
 refdet=serialno
 rest=2
 rgrid=log3
 rism=off
 rohfcore=semicanonical
 rohftype=semicanonical
 scfalg=auto
 scf_conv=auto
 scfdamp=0.0d0
 scfdamp_mode=off
 scfdamp_end=9999
 scfdamp_dampstep=0.d0
 scfdamp_dtol=0.0d0
 scfdamp_maxfact=0.0d0
 scfdamp_minfact=0.0d0
 scfdiis=on
 scfdiis_dtol=0.0d0
 scfdiis_end=9999
 scfdiis_start=2
 scfdiis_step=1
 scfdiis_watch=off
 scfdiis_wrange=10
 scfdiis_wlimit=5
 scfdiis_delmax=2
 scfdtol=14
 scfext=10
 scfguessdens=
 scfiguess=ao
 scfloc=off
 scflshift=0.20
 scflshift_end=8
 scflshift_dtol=0.0
 scflshift_gaptol=0.20
 scfmaxit=9999
 scftype=uhf
 scftol=13
 scspe=1.d0
 scsph=1.d0
 scsps=1.2d0
 scsps_t=1.2d0
 scspt=0.33333333333333
 scspt_t=0.33333333333333
 scspv=1.d0
 spairtol=1e-4
 sqmprog=
 subminp=top
 subsys_bopu=on
 symm=2
 talg=occ
 temp=298.15
 test=off
 theodore=off
 tlmo=0.999
 tpao=0.94
 tprint=0.01
 uncontract=off
 unit=angs
 usedisk=2
 verbosity=3
 wpairtol=0.100000000E-05
 ispstart=
 ispend=

 ************************ 2025-08-24 05:06:02 *************************
 Executing goldstone...

 Generation of CC equations in terms of H and T...
 Generation of antisymmetrized Goldstone diagrams...
 Number of diagrams in T^1 equations:    15
 Number of diagrams in T^2 equations:    38
 Number of diagrams in T^3 equations:    50
 Number of diagrams in T^4 equations:     5
 Translation of diagrams to factorized equations...
 Optimizing intermediate calculation...
 Number of floating-point operations per iteration step:   6.6667E+13
 Probable CPU time per iteration step (hours):          666.67
 Required memory (Mbytes):        492530.4
 Number of intermediates:                                  80
 Number of intermediates to be stored:                     32
 Length of intermediate file (Mbytes):          7960.9

 ************************ 2025-08-24 05:06:02 *************************
 Executing xmrcc...

 **********************************************************************
 CC(3)(4) calculation 
 
 
 Allocation of        35840.0 Mbytes of memory...
 Number of spinorbitals:                   504
 Number of alpha electrons:                        5
 Number of beta electrons:                         3
 Spin multiplicity:                     2
 z-component of spin:  1.0
 Spatial symmetry:                      2
 Convergence criterion:  1.0E-06
 Construction of occupation graphs...
 Number of                     0 -fold excitations:                      1
 Number of                     1 -fold excitations:                    376
 Number of                     2 -fold excitations:                 176407
 Number of                     3 -fold excitations:               46414986
 Total number of configurations:               46591770
 Calculation of coupling coefficients...
 Length of intermediate file (Mbytes):          6042.4
 
 ======================================================================
 
 Spin case  1   Alpha:  1   Beta:  3
 Number of excitations:              392963211
 Spin case  2   Alpha:  2   Beta:  2
 Number of excitations:             3520883652
 Spin case  3   Alpha:  3   Beta:  1
 Number of excitations:             2313957507
 Spin case  4   Alpha:  4   Beta:  0
 Number of excitations:               94257730
 Number of                     4 -fold excitations:             6322062100
 
 Memory requirements /Mbyte/: 
               Minimal        Optimal
 Real*8:      14431.1046     30769.4438
 Integer:      1249.7293
 Total:       15680.8340     32019.1732
 

 ************************ 2025-08-24 05:08:06 *************************
 Executing goldstone...

 Generation of CC equations in terms of H and T...
 Generation of antisymmetrized Goldstone diagrams...
 Number of diagrams in T^1 equations:    15
 Number of diagrams in T^2 equations:    34
 Number of diagrams in T^3 equations:     2
 Translation of diagrams to factorized equations...
 Optimizing intermediate calculation...
 Number of floating-point operations per iteration step:   1.0023E+11
 Probable CPU time per iteration step (hours):            1.00
 Required memory (Mbytes):        492530.4
 Number of intermediates:                                  49
 Number of intermediates to be stored:                     20
 Length of intermediate file (Mbytes):          7667.5

 ************************ 2025-08-24 05:08:06 *************************
 Executing xmrcc...

 **********************************************************************
 CC(2)(3) calculation 
 
 
 Allocation of        35840.0 Mbytes of memory...
 Number of spinorbitals:                   504
 Number of alpha electrons:                        5
 Number of beta electrons:                         3
 Spin multiplicity:                     2
 z-component of spin:  1.0
 Spatial symmetry:                      2
 Convergence criterion:  1.0E-06
 Construction of occupation graphs...
 Number of                     0 -fold excitations:                      1
 Number of                     1 -fold excitations:                    376
 Number of                     2 -fold excitations:                 176407
 Total number of configurations:                 176784
 Calculation of coupling coefficients...
 Length of intermediate file (Mbytes):          5819.9
 
 ======================================================================
 
 Spin case  1   Alpha:  0   Beta:  3
 Number of excitations:                 320825
 Spin case  2   Alpha:  1   Beta:  2
 Number of excitations:               14475407
 Spin case  3   Alpha:  2   Beta:  1
 Number of excitations:               28536702
 Spin case  4   Alpha:  3   Beta:  0
 Number of excitations:                3082052
 Number of                     3 -fold excitations:               46414986
 
 Memory requirements /Mbyte/: 
               Minimal        Optimal
 Real*8:       3942.2150     30993.9373
 Integer:        15.7192
 Total:        3957.9342     31009.6565
 

 ************************ 2025-08-24 05:08:08 *************************
 Executing mrcc...

 **********************************************************************
 CCSD(T) calculation                                                    
 
 
 OpenMP parallel version is running.
 Number of CPU cores:   4
 Allocation of        30993.9 Mbytes of memory...
 Number of spinorbitals: 504
 Number of alpha electrons:  5
 Number of beta  electrons:  3
 Spin multiplicity: 3
 z-component of spin:  1.0
 Spatial symmetry: 2
 Convergence criterion:  1.0E-06
 Construction of occupation graphs...
 Number of 0-fold excitations: 1
 Number of 1-fold excitations: 376
 Number of 2-fold excitations: 176407
 Total number of determinants: 176784
 Calculation of coupling coefficients...
 Initial cluster amplitudes are generated.
 Length of intermediate file (Mbytes):    5819.9
 Reading integral list from unit 55...
 Sorting integrals...
 Sorting integrals...
 Sorting integrals...
 Sorting integrals...
 Energy of reference determinant [au]:     -74.702376421885
 Calculation of MP denominators...
 
 Starting CC iteration...
 ======================================================================
 Norm of residual vector:     3.46909362
 CPU time [min]:    13.646                   Wall time [min]:    13.262
 
 Iteration  1  CC energy:   -74.99824934  Energy decrease:   0.29587292
 ======================================================================
 Norm of residual vector:     0.37497424
 CPU time [min]:    17.021                   Wall time [min]:    16.163
 
 Iteration  2  CC energy:   -75.04230315  Energy decrease:   0.04405381
 ======================================================================
 Norm of residual vector:     2.97398034
 CPU time [min]:    20.344                   Wall time [min]:    19.047
 
 Iteration  3  CC energy:   -75.06016295  Energy decrease:   0.01785979
 ======================================================================
 Norm of residual vector:    60.18772231
 CPU time [min]:    23.693                   Wall time [min]:    21.919
 
 Iteration  4  CC energy:   -75.06025561  Energy decrease:   0.00009266
 ======================================================================
 Norm of residual vector:    32.40254452
 CPU time [min]:    26.915                   Wall time [min]:    24.759
 
 Iteration  5  CC energy:   -75.05793908  Energy decrease:   0.00231653
 ======================================================================
 Norm of residual vector:    11.69002261
 CPU time [min]:    30.184                   Wall time [min]:    27.620
 
 Iteration  6  CC energy:   -75.05798151  Energy decrease:   0.00004242
 ======================================================================
 Norm of residual vector:    15.29521478
 CPU time [min]:    33.485                   Wall time [min]:    30.442
 
 Iteration  7  CC energy:   -75.05980927  Energy decrease:   0.00182776
 ======================================================================
 Norm of residual vector:     4.68627800
 CPU time [min]:    36.844                   Wall time [min]:    33.291
 
 Iteration  8  CC energy:   -75.05979184  Energy decrease:   0.00001743
 ======================================================================
 Norm of residual vector:     6.42338237
 CPU time [min]:    40.212                   Wall time [min]:    36.093
 
 Iteration  9  CC energy:   -75.05932049  Energy decrease:   0.00047136
 ======================================================================
 Norm of residual vector:     2.29927340
 CPU time [min]:    43.684                   Wall time [min]:    39.004
 
 Iteration 10  CC energy:   -75.05931915  Energy decrease:   0.00000134
 ======================================================================
 Norm of residual vector:     1.75246414
 CPU time [min]:    47.099                   Wall time [min]:    41.908
 
 Iteration 11  CC energy:   -75.05933018  Energy decrease:   0.00001104
 ======================================================================
 Norm of residual vector:     0.03413846
 CPU time [min]:    50.395                   Wall time [min]:    44.820
 
 Iteration 12  CC energy:   -75.05935661  Energy decrease:   0.00002642
 ======================================================================
 Norm of residual vector:     0.56464373
 CPU time [min]:    53.741                   Wall time [min]:    47.720
 
 Iteration 13  CC energy:   -75.05935746  Energy decrease:   0.00000085
 ======================================================================
 Norm of residual vector:     0.09495582
 CPU time [min]:    57.084                   Wall time [min]:    50.651
 
 Iteration 14  CC energy:   -75.05935301  Energy decrease:   0.00000445
 ======================================================================
 Norm of residual vector:     0.00076537
 CPU time [min]:    60.211                   Wall time [min]:    53.561
 
 Iteration 15  CC energy:   -75.05935466  Energy decrease:   0.00000166
 ======================================================================
 Norm of residual vector:     0.00033722
 CPU time [min]:    63.313                   Wall time [min]:    56.432
 
 Iteration 16  CC energy:   -75.05935470  Energy decrease:   0.00000003
 ======================================================================
 Norm of residual vector:     0.00016352
 CPU time [min]:    66.436                   Wall time [min]:    59.328
 
 Iteration 17  CC energy:   -75.05935467  Energy decrease:   0.00000002
 ======================================================================
 Norm of residual vector:     0.00011530
 CPU time [min]:    69.504                   Wall time [min]:    62.161
 
 Iteration 18  CC energy:   -75.05935471  Energy decrease:   0.00000003
 ======================================================================
 Norm of residual vector:     0.00006164
 CPU time [min]:    72.778                   Wall time [min]:    65.141
 
 Iteration 19  CC energy:   -75.05935469  Energy decrease:   0.00000002
 ======================================================================
 Norm of residual vector:     0.00003031
 CPU time [min]:    75.910                   Wall time [min]:    68.051
 
 Iteration 20  CC energy:   -75.05935469  Energy decrease:   3.7235E-09
 ======================================================================
 Norm of residual vector:     0.00001176
 CPU time [min]:    79.110                   Wall time [min]:    70.992
 
 Iteration 21  CC energy:   -75.05935469  Energy decrease:   2.3979E-10
 ======================================================================
 Norm of residual vector:     0.00000403
 CPU time [min]:    82.181                   Wall time [min]:    73.838
 
 Iteration 22  CC energy:   -75.05935469  Energy decrease:   1.4157E-10
 ======================================================================
 Norm of residual vector:     0.00000085
 CPU time [min]:    85.415                   Wall time [min]:    76.669
 
 Iteration 23  CC energy:   -75.05935469  Energy decrease:   1.3912E-11
 ======================================================================
 
 Iteration has converged in 23 steps.
 
 Final results:
 Total CCSD energy [au]:                      -75.059354694401
 
 Perturbative corrections are calculated...
 ======================================================================
 Spin case  1   Alpha:  0   Beta:  3
 Number of excitations:        320825
 ispcorr1 :     0.000000000000
 ispcorr2 :     0.000000000000
 corr1    :     0.000000000000
 corr2    :     0.000000000000
 CPU time [min]:    85.830                   Wall time [min]:    76.855
 ======================================================================
 Spin case  2   Alpha:  1   Beta:  2
 Number of excitations:        14475407
 ispcorr1 :     0.000000000000
 ispcorr2 :     0.000000000000
 corr1    :     0.000000000000
 corr2    :     0.000000000000
 CPU time [min]:    89.273                   Wall time [min]:    78.172
 ======================================================================
 Spin case  3   Alpha:  2   Beta:  1
 Number of excitations:        28536702
 ispcorr1 :     0.000000000000
 ispcorr2 :     0.000000000000
 corr1    :     0.000000000000
 corr2    :     0.000000000000
 CPU time [min]:    94.634                   Wall time [min]:    80.887
 ======================================================================
 Spin case  4   Alpha:  3   Beta:  0
 Number of excitations:        3082052
 ispcorr1 :     0.000000000000
 ispcorr2 :     0.000000000000
 corr1    :     0.000000000000
 corr2    :     0.000000000000
 CPU time [min]:    95.615                   Wall time [min]:    81.395
 ======================================================================
 Number of 3-fold excitations: 46414986
 
 corr1 :     0.000007383025
 corr3 :     0.000000000000
 corr4 :     0.000000000000
 corr2 :    -0.000004396246
 
 corr1 :     0.000459811311
 corr3 :     0.000000000000
 corr4 :     0.000000000000
 corr2 :    -0.001175524970
 
 corr1 :     0.001343214378
 corr3 :     0.000000000000
 corr4 :     0.000000000000
 corr2 :    -0.004514730587
 
 corr1 :     0.001353986780
 corr3 :     0.000000000000
 corr4 :     0.000000000000
 corr2 :    -0.004759068852
 
 CPU time [min]:    95.621                   Wall time [min]:    81.398
 
 Total CCSD[T] energy [au]:                   -75.064113763254
 Total CCSD(T) energy [au]:                   -75.062759776474
 
 Dominant cluster amplitudes
 Printing threshold:  1.00E-02
 
    1.000000  Reference determinant                                     
    0.032920  2b -> 11b                                                 
    0.013474  2b -> 15b                                                 
   -0.026048  2b -> 27b                                                 
    0.010367  2b -> 31b                                                 
    0.471868  3b -> 7b                                                  
    0.153267  3b -> 16b                                                 
    0.042623  3b -> 32b                                                 
   -0.017440  2a -> 15a                                                 
   -0.010376  2a -> 27a                                                 
    0.021898  2a -> 31a                                                 
   -0.020939  3a -> 7a                                                  
    0.013280  3a -> 23a                                                 
    0.010246  3a -> 48a                                                 
    0.028975  5a -> 9a                                                  
   -0.027766  5a -> 18a                                                 
    0.014148  5a -> 25a                                                 
    0.011514  5a -> 34a                                                 
    0.011107  5a -> 50a                                                 
   -0.012341  2b 3b -> 4b 12b                                           
   -0.015192  2b 3b -> 5b 14b                                           
   -0.012485  2b 3b -> 5b 30b                                           
   -0.010052  2a 2b -> 26a 26b                                          
   -0.011733  3a 3b -> 11a 15b                                          
   -0.010296  3a 3b -> 11a 31b                                          
   -0.013198  3a 3b -> 27a 31b                                          
   -0.011782  3a 3b -> 14a 14b                                          
   -0.010106  3a 3b -> 14a 30b                                          
   -0.013232  3a 3b -> 30a 30b                                          
   -0.011760  3a 3b -> 12a 12b                                          
   -0.010351  3a 3b -> 12a 28b                                          
   -0.013236  3a 3b -> 28a 28b                                          
   -0.023408  3a 3b -> 7a 7b                                            
    0.024670  3a 3b -> 16a 7b                                           
   -0.010349  3a 3b -> 32a 7b                                           
   -0.026685  3a 3b -> 7a 16b                                           
    0.033268  3a 3b -> 16a 16b                                          
   -0.018037  3a 3b -> 32a 16b                                          
   -0.012099  3a 3b -> 7a 32b                                           
    0.018921  3a 3b -> 16a 32b                                          
   -0.016051  3a 3b -> 32a 32b                                          
   -0.011612  2a 2b -> 9a 5b                                            
    0.011934  2a 2b -> 18a 5b                                           
   -0.016987  5a 3b -> 7a 5b                                            
    0.011167  5a 3b -> 16a 5b                                           
   -0.016111  5a 3b -> 9a 7b                                            
    0.018772  5a 3b -> 18a 7b                                           
   -0.017865  5a 3b -> 9a 16b                                           
    0.024176  5a 3b -> 18a 16b                                          
   -0.014068  5a 3b -> 34a 16b                                          
    0.013660  5a 3b -> 18a 32b                                          
   -0.011584  5a 3b -> 34a 32b                                          
   -0.012506  4a 3b -> 7a 4b                                            
   -0.010226  4a 3b -> 7a 8b                                            
   -0.016252  4a 3b -> 8a 7b                                            
    0.018428  4a 3b -> 17a 7b                                           
   -0.018167  4a 3b -> 8a 16b                                           
    0.023900  4a 3b -> 17a 16b                                          
   -0.013783  4a 3b -> 33a 16b                                          
    0.013621  4a 3b -> 17a 32b                                          
   -0.011452  4a 3b -> 33a 32b                                          
   -0.013487  2a 3b -> 10a 7b                                           
    0.010076  2a 3b -> 6a 16b                                           
   -0.018081  2a 3b -> 10a 16b                                          
    0.015848  2a 3b -> 26a 16b                                          
   -0.010266  2a 3b -> 10a 32b                                          
    0.011965  2a 3b -> 26a 32b                                          
   -0.012815  2a 3b -> 30a 5b                                           
   -0.021394  3a 2b -> 14a 5b                                           
   -0.023454  3a 2b -> 30a 5b                                           
   -0.010477  3a 2b -> 54a 5b                                           
   -0.010119  2a 3b -> 28a 4b                                           
   -0.017724  3a 2b -> 12a 4b                                           
   -0.018332  3a 2b -> 28a 4b                                           
   -0.011832  3a 2b -> 12a 8b                                           
   -0.013641  3a 2b -> 28a 8b                                           
   -0.010281  3a 2b -> 7a 10b                                           
    0.013868  3a 2b -> 16a 10b                                          
   -0.012406  3a 2b -> 16a 26b                                          
    0.010000  3a 2b -> 32a 26b                                          
    0.017949  4a 2b -> 11a 4b                                           
   -0.010994  4a 2b -> 15a 4b                                           
    0.018412  4a 2b -> 27a 4b                                           
    0.011334  4a 2b -> 31a 4b                                           
    0.012073  4a 2b -> 11a 8b                                           
    0.013685  4a 2b -> 27a 8b                                           
   -0.022075  4a 2b -> 13a 5b                                           
   -0.024175  4a 2b -> 29a 5b                                           
   -0.010703  4a 2b -> 53a 5b                                           
    0.013667  4a 2b -> 17a 10b                                          
   -0.012269  4a 2b -> 17a 26b                                          
    0.010042  4a 2b -> 33a 26b                                          
   -0.014132  5a 2b -> 10a 5b                                           
    0.024683  5a 2b -> 15a 5b                                           
   -0.027587  5a 2b -> 31a 5b                                           
    0.012374  5a 2b -> 55a 5b                                           
   -0.018168  5a 2b -> 13a 4b                                           
   -0.019059  5a 2b -> 29a 4b                                           
   -0.012185  5a 2b -> 13a 8b                                           
   -0.014140  5a 2b -> 29a 8b                                           
    0.013832  5a 2b -> 18a 10b                                          
   -0.012431  5a 2b -> 18a 26b                                          
    0.010156  5a 2b -> 34a 26b                                          
    0.010247  4a 5a -> 8a 18a                                           
   -0.014405  4a 5a -> 17a 18a                                          
   -0.010424  4a 5a -> 29a 31a                                          
    0.010799  3a 5a -> 7a 18a                                           
   -0.014105  3a 5a -> 16a 18a                                          
   -0.010506  3a 5a -> 30a 31a                                          
   -0.010378  3a 4a -> 11a 12a                                          
    0.010618  3a 4a -> 7a 17a                                           
   -0.013950  3a 4a -> 16a 17a                                          
   -0.012181  3a 4a -> 27a 28a                                          

 ************************ 2025-08-24 06:29:39 *************************
 Executing goldstone...

 Generation of CC equations in terms of H and T...
 Generation of antisymmetrized Goldstone diagrams...
 Number of diagrams in T^1 equations:    15
 Number of diagrams in T^2 equations:    38
 Number of diagrams in T^3 equations:    50
 Number of diagrams in T^4 equations:     5
 Translation of diagrams to factorized equations...
 Optimizing intermediate calculation...
 Number of floating-point operations per iteration step:   6.6667E+13
 Probable CPU time per iteration step (hours):          666.67
 Required memory (Mbytes):        492530.4
 Number of intermediates:                                  80
 Number of intermediates to be stored:                     32
 Length of intermediate file (Mbytes):          7960.9

 ************************ 2025-08-24 06:29:40 *************************
 Executing xmrcc...

 **********************************************************************
 CC(3)(4) calculation 
 
 
 Allocation of        35840.0 Mbytes of memory...
 Number of spinorbitals:                   504
 Number of alpha electrons:                        5
 Number of beta electrons:                         3
 Spin multiplicity:                     2
 z-component of spin:  1.0
 Spatial symmetry:                      2
 Convergence criterion:  1.0E-06
 Construction of occupation graphs...
 Number of                     0 -fold excitations:                      1
 Number of                     1 -fold excitations:                    376
 Number of                     2 -fold excitations:                 176407
 Number of                     3 -fold excitations:               46414986
 Total number of configurations:               46591770
 Calculation of coupling coefficients...
 Length of intermediate file (Mbytes):          6042.4
 
 ======================================================================
 
 Spin case  1   Alpha:  1   Beta:  3
 Number of excitations:              392963211
 Spin case  2   Alpha:  2   Beta:  2
 Number of excitations:             3520883652
 Spin case  3   Alpha:  3   Beta:  1
 Number of excitations:             2313957507
 Spin case  4   Alpha:  4   Beta:  0
 Number of excitations:               94257730
 Number of                     4 -fold excitations:             6322062100
 
 Memory requirements /Mbyte/: 
               Minimal        Optimal
 Real*8:      14431.1046     30769.4438
 Integer:      1249.7293
 Total:       15680.8340     32019.1732
 

 ************************ 2025-08-24 06:31:59 *************************
 Executing mrcc...

 **********************************************************************
 CCSDT(Q) calculation                                                   
 
 
 OpenMP parallel version is running.
 Number of CPU cores:   4
 Allocation of        30769.4 Mbytes of memory...
 Number of spinorbitals: 504
 Number of alpha electrons:  5
 Number of beta  electrons:  3
 Spin multiplicity: 3
 z-component of spin:  1.0
 Spatial symmetry: 2
 Convergence criterion:  1.0E-06
 Construction of occupation graphs...
 Number of 0-fold excitations: 1
 Number of 1-fold excitations: 376
 Number of 2-fold excitations: 176407
 Number of 3-fold excitations: 46414986
 Total number of determinants: 46591770
 Calculation of coupling coefficients...
 Initial cluster amplitudes are read from unit 16.
 Length of intermediate file (Mbytes):    6042.4
 Reading integral list from unit 55...
 Sorting integrals...
 Sorting integrals...
 Sorting integrals...
 Sorting integrals...
 Energy of reference determinant [au]:     -74.702376421885
 Calculation of MP denominators...
 
 Starting CC iteration...
 ======================================================================
 Norm of residual vector:     0.32024040
 CPU time [min]:    38.881                   Wall time [min]:    24.721
 
 Iteration  1  CC energy:   -75.05935469  Energy decrease:   3.8654E-12
 ======================================================================
 Norm of residual vector:     0.04277666
 CPU time [min]:    65.054                   Wall time [min]:    37.230
 
 Iteration  2  CC energy:   -75.06320522  Energy decrease:   0.00385053
 ======================================================================
 Norm of residual vector:     0.18557279
 CPU time [min]:    90.551                   Wall time [min]:    49.452
 
 Iteration  3  CC energy:   -75.06382294  Energy decrease:   0.00061772
 ======================================================================
 Norm of residual vector:     2.85445978
 CPU time [min]:   115.411                   Wall time [min]:    61.495
 
 Iteration  4  CC energy:   -75.06384151  Energy decrease:   0.00001857
 ======================================================================
 Norm of residual vector:     7.07984250
 CPU time [min]:   140.167                   Wall time [min]:    73.568
 
 Iteration  5  CC energy:   -75.06404786  Energy decrease:   0.00020635
 ======================================================================
 Norm of residual vector:     0.45486050
 CPU time [min]:   165.660                   Wall time [min]:    85.516
 
 Iteration  6  CC energy:   -75.06407827  Energy decrease:   0.00003041
 ======================================================================
 Norm of residual vector:     4.41471019
 CPU time [min]:   190.749                   Wall time [min]:    97.924
 
 Iteration  7  CC energy:   -75.06410922  Energy decrease:   0.00003095
 ======================================================================
 Norm of residual vector:     0.41365380
 CPU time [min]:   216.415                   Wall time [min]:   109.406
 
 Iteration  8  CC energy:   -75.06411512  Energy decrease:   0.00000590
 ======================================================================
 Norm of residual vector:     1.53603074
 CPU time [min]:   241.917                   Wall time [min]:   120.381
 
 Iteration  9  CC energy:   -75.06414650  Energy decrease:   0.00003138
 ======================================================================
 Norm of residual vector:     0.63340826
 CPU time [min]:   267.083                   Wall time [min]:   132.015
 
 Iteration 10  CC energy:   -75.06414668  Energy decrease:   0.00000018
 ======================================================================
 Norm of residual vector:     0.34257551
 CPU time [min]:   292.369                   Wall time [min]:   143.064
 
 Iteration 11  CC energy:   -75.06415352  Energy decrease:   0.00000684
 ======================================================================
 Norm of residual vector:     0.94664412
 CPU time [min]:   317.731                   Wall time [min]:   154.973
 
 Iteration 12  CC energy:   -75.06415714  Energy decrease:   0.00000362
 ======================================================================
 Norm of residual vector:     0.22097922
 CPU time [min]:   342.952                   Wall time [min]:   166.883
 
 Iteration 13  CC energy:   -75.06415712  Energy decrease:   0.00000002
 ======================================================================
 Norm of residual vector:     0.28091303
 CPU time [min]:   367.758                   Wall time [min]:   179.367
 
 Iteration 14  CC energy:   -75.06415809  Energy decrease:   0.00000096
 ======================================================================
 Norm of residual vector:     0.47204418
 CPU time [min]:   393.214                   Wall time [min]:   190.532
 
 Iteration 15  CC energy:   -75.06415883  Energy decrease:   0.00000074
 ======================================================================
 Norm of residual vector:     0.15482841
 CPU time [min]:   418.976                   Wall time [min]:   203.048
 
 Iteration 16  CC energy:   -75.06415892  Energy decrease:   0.00000009
 ======================================================================
 Norm of residual vector:     0.12161158
 CPU time [min]:   444.089                   Wall time [min]:   214.427
 
 Iteration 17  CC energy:   -75.06415735  Energy decrease:   0.00000157
 ======================================================================
 Norm of residual vector:     0.24422568
 CPU time [min]:   468.684                   Wall time [min]:   225.894
 
 Iteration 18  CC energy:   -75.06415614  Energy decrease:   0.00000121
 ======================================================================
 Norm of residual vector:     0.11457435
 CPU time [min]:   492.903                   Wall time [min]:   236.560
 
 Iteration 19  CC energy:   -75.06415613  Energy decrease:   0.00000001
 ======================================================================
 Norm of residual vector:     0.04314542
 CPU time [min]:   516.777                   Wall time [min]:   247.342
 
 Iteration 20  CC energy:   -75.06415594  Energy decrease:   0.00000019
 ======================================================================
 Norm of residual vector:     0.07676415
 CPU time [min]:   540.629                   Wall time [min]:   258.326
 
 Iteration 21  CC energy:   -75.06415511  Energy decrease:   0.00000083
 ======================================================================
 Norm of residual vector:     0.07618964
 CPU time [min]:   565.271                   Wall time [min]:   269.666
 
 Iteration 22  CC energy:   -75.06415485  Energy decrease:   0.00000026
 ======================================================================
 Norm of residual vector:     0.03348986
 CPU time [min]:   591.015                   Wall time [min]:   281.140
 
 Iteration 23  CC energy:   -75.06415483  Energy decrease:   0.00000002
 ======================================================================
 Norm of residual vector:     0.02214309
 CPU time [min]:   617.138                   Wall time [min]:   292.952
 
 Iteration 24  CC energy:   -75.06415483  Energy decrease:   4.8257E-09
 ======================================================================
 Norm of residual vector:     0.03939334
 CPU time [min]:   642.873                   Wall time [min]:   304.732
 
 Iteration 25  CC energy:   -75.06415480  Energy decrease:   0.00000003
 ======================================================================
 Norm of residual vector:     0.02431528
 CPU time [min]:   669.045                   Wall time [min]:   316.668
 
 Iteration 26  CC energy:   -75.06415480  Energy decrease:   0.00000001
 ======================================================================
 Norm of residual vector:     0.01216499
 CPU time [min]:   694.968                   Wall time [min]:   328.492
 
 Iteration 27  CC energy:   -75.06415480  Energy decrease:   1.5942E-10
 ======================================================================
 Norm of residual vector:     0.01267080
 CPU time [min]:   721.714                   Wall time [min]:   341.192
 
 Iteration 28  CC energy:   -75.06415480  Energy decrease:   0.00000001
 ======================================================================
 Norm of residual vector:     0.01852845
 CPU time [min]:   748.544                   Wall time [min]:   353.143
 
 Iteration 29  CC energy:   -75.06415480  Energy decrease:   1.9286E-09
 ======================================================================
 Norm of residual vector:     0.01300083
 CPU time [min]:   774.743                   Wall time [min]:   365.022
 
 Iteration 30  CC energy:   -75.06415480  Energy decrease:   1.0648E-09
 ======================================================================
 Norm of residual vector:     0.00575792
 CPU time [min]:   801.246                   Wall time [min]:   378.144
 
 Iteration 31  CC energy:   -75.06415480  Energy decrease:   6.4119E-11
 ======================================================================
 Norm of residual vector:     0.00644437
 CPU time [min]:   828.012                   Wall time [min]:   390.255
 
 Iteration 32  CC energy:   -75.06415480  Energy decrease:   1.0043E-09
 ======================================================================
 Norm of residual vector:     0.00957149
 CPU time [min]:   855.221                   Wall time [min]:   402.424
 
 Iteration 33  CC energy:   -75.06415480  Energy decrease:   2.8118E-10
 ======================================================================
 Norm of residual vector:     0.00639963
 CPU time [min]:   881.707                   Wall time [min]:   414.360
 
 Iteration 34  CC energy:   -75.06415480  Energy decrease:   1.1783E-09
 ======================================================================
 Norm of residual vector:     0.00386997
 CPU time [min]:   908.369                   Wall time [min]:   426.437
 
 Iteration 35  CC energy:   -75.06415480  Energy decrease:   2.7072E-11
 ======================================================================
 Norm of residual vector:     0.00395512
 CPU time [min]:   934.970                   Wall time [min]:   438.459
 
 Iteration 36  CC energy:   -75.06415480  Energy decrease:   1.6691E-09
 ======================================================================
 Norm of residual vector:     0.00515554
 CPU time [min]:   962.387                   Wall time [min]:   450.880
 
 Iteration 37  CC energy:   -75.06415480  Energy decrease:   2.1531E-10
 ======================================================================
 Norm of residual vector:     0.00384365
 CPU time [min]:   990.034                   Wall time [min]:   463.557
 
 Iteration 38  CC energy:   -75.06415480  Energy decrease:   1.0415E-09
 ======================================================================
 Norm of residual vector:     0.00245250
 CPU time [min]:  1017.553                   Wall time [min]:   475.959
 
 Iteration 39  CC energy:   -75.06415480  Energy decrease:   1.0855E-09
 ======================================================================
 Norm of residual vector:     0.00192717
 CPU time [min]:  1046.323                   Wall time [min]:   488.373
 
 Iteration 40  CC energy:   -75.06415480  Energy decrease:   2.8933E-09
 ======================================================================
 Norm of residual vector:     0.00252617
 CPU time [min]:  1074.740                   Wall time [min]:   501.639
 
 Iteration 41  CC energy:   -75.06415481  Energy decrease:   0.00000001
 ======================================================================
 Norm of residual vector:     0.00205095
 CPU time [min]:  1102.574                   Wall time [min]:   514.124
 
 Iteration 42  CC energy:   -75.06415482  Energy decrease:   2.6374E-09
 ======================================================================
 Norm of residual vector:     0.00099047
 CPU time [min]:  1132.070                   Wall time [min]:   527.764
 
 Iteration 43  CC energy:   -75.06415482  Energy decrease:   1.4153E-10
 ======================================================================
 Norm of residual vector:     0.00083066
 CPU time [min]:  1161.695                   Wall time [min]:   541.100
 
 Iteration 44  CC energy:   -75.06415482  Energy decrease:   2.5210E-10
 ======================================================================
 Norm of residual vector:     0.00123035
 CPU time [min]:  1190.723                   Wall time [min]:   553.955
 
 Iteration 45  CC energy:   -75.06415482  Energy decrease:   3.2709E-10
 ======================================================================
 Norm of residual vector:     0.00120901
 CPU time [min]:  1218.661                   Wall time [min]:   566.501
 
 Iteration 46  CC energy:   -75.06415482  Energy decrease:   8.9544E-10
 ======================================================================
 Norm of residual vector:     0.00068173
 CPU time [min]:  1246.747                   Wall time [min]:   579.384
 
 Iteration 47  CC energy:   -75.06415482  Energy decrease:   2.6017E-10
 ======================================================================
 Norm of residual vector:     0.00035279
 CPU time [min]:  1273.907                   Wall time [min]:   592.098
 
 Iteration 48  CC energy:   -75.06415482  Energy decrease:   2.3928E-10
 ======================================================================
 Norm of residual vector:     0.00047795
 CPU time [min]:  1301.397                   Wall time [min]:   605.138
 
 Iteration 49  CC energy:   -75.06415482  Energy decrease:   7.9096E-10
 ======================================================================
 Norm of residual vector:     0.00054255
 CPU time [min]:  1328.660                   Wall time [min]:   618.333
 
 Iteration 50  CC energy:   -75.06415482  Energy decrease:   4.2979E-10
 ======================================================================
 
 Convergence not achieved in 50 iterations!
 
 Final results:
 Total CCSDT energy [au]:                     -75.064154817434
 
 Perturbative corrections are calculated...
 ======================================================================
 Spin case  1   Alpha:  1   Beta:  3
 Number of excitations:        392963211
 ispcorr1 :     0.000000000000
 ispcorr2 :     0.000000000000
 corr1    :     0.000000000000
 corr2    :     0.000000000000
 CPU time [min]:  3392.677                   Wall time [min]:  1400.421
 ======================================================================
 Spin case  2   Alpha:  2   Beta:  2
 Number of excitations:        3520883652
 ispcorr1 :     0.000000000000
 ispcorr2 :     0.000000000000
 corr1    :     0.000000000000
 corr2    :     0.000000000000
 CPU time [min]:  8746.996                   Wall time [min]:  2828.222
 ======================================================================
 Spin case  3   Alpha:  3   Beta:  1
 Number of excitations:        2313957507
 ispcorr1 :     0.000000000000
 ispcorr2 :     0.000000000000
 corr1    :     0.000000000000
 corr2    :     0.000000000000
 CPU time [min]: 12179.674                   Wall time [min]:  3738.098
 ======================================================================
 Spin case  4   Alpha:  4   Beta:  0
 Number of excitations:        94257730
 ispcorr1 :     0.000000000000
 ispcorr2 :     0.000000000000
 corr1    :     0.000000000000
 corr2    :     0.000000000000
 CPU time [min]: 12547.258                   Wall time [min]:  3835.644
 ======================================================================
 Number of 4-fold excitations: 6322062100
 
 T_2^+ contribution [au]:                      -0.000000584868
 corr1 :    -0.000000584868
 corr3 :     0.000000000000
 corr4 :     0.000000000000
 T_3^+ contribution [au]:                      -0.000000885139
 T_1^+ * T_2^+ contribution [au]:               0.000000197585
 T_1^+ * <ab||ij> contribution [au]:            0.000000317322
 T_2^+ * f_ai contribution [au]:               -0.000000033480
 corr2 :    -0.000000885139
 corr3 :     0.000000197585
 corr4 :     0.000000283842
 
 T_2^+ contribution [au]:                      -0.000022046930
 corr1 :    -0.000022046930
 corr3 :     0.000000197585
 corr4 :     0.000000283842
 T_3^+ contribution [au]:                      -0.000053206962
 T_1^+ * T_2^+ contribution [au]:              -0.000015746608
 T_1^+ * <ab||ij> contribution [au]:           -0.000007443917
 T_2^+ * f_ai contribution [au]:               -0.000005377752
 corr2 :    -0.000053206962
 corr3 :    -0.000015549023
 corr4 :    -0.000012537826
 
 T_2^+ contribution [au]:                      -0.000044874272
 corr1 :    -0.000044874272
 corr3 :    -0.000015549023
 corr4 :    -0.000012537826
 T_3^+ contribution [au]:                      -0.000092502461
 T_1^+ * T_2^+ contribution [au]:              -0.000020703712
 T_1^+ * <ab||ij> contribution [au]:           -0.000009881308
 T_2^+ * f_ai contribution [au]:               -0.000009489854
 corr2 :    -0.000092502461
 corr3 :    -0.000036252735
 corr4 :    -0.000031908989
 
 T_2^+ contribution [au]:                      -0.000044827232
 corr1 :    -0.000044827232
 corr3 :    -0.000036252735
 corr4 :    -0.000031908989
 T_3^+ contribution [au]:                      -0.000093348491
 T_1^+ * T_2^+ contribution [au]:              -0.000020740438
 T_1^+ * <ab||ij> contribution [au]:           -0.000009882693
 T_2^+ * f_ai contribution [au]:               -0.000009686093
 corr2 :    -0.000093348491
 corr3 :    -0.000056993173
 corr4 :    -0.000051477775
 
 CPU time [min]: 12550.027                   Wall time [min]:  3837.317
 
 Total CCSDT[Q] energy [au]:                  -75.064199644666
 Total CCSDT(Q)/A energy [au]:                -75.064349986330
 Total CCSDT(Q)/B energy [au]:                -75.064344470932
 
 Dominant cluster amplitudes
 Printing threshold:  1.00E-02
 
    1.000000  Reference determinant                                     
    0.032951  2b -> 11b                                                 
    0.013493  2b -> 15b                                                 
   -0.026091  2b -> 27b                                                 
    0.010420  2b -> 31b                                                 
    0.471386  3b -> 7b                                                  
    0.152872  3b -> 16b                                                 
    0.042388  3b -> 32b                                                 
   -0.017487  2a -> 15a                                                 
   -0.010424  2a -> 27a                                                 
    0.021937  2a -> 31a                                                 
   -0.023158  3a -> 7a                                                  
    0.013261  3a -> 23a                                                 
    0.010225  3a -> 48a                                                 
    0.027882  5a -> 9a                                                  
   -0.027163  5a -> 18a                                                 
    0.014109  5a -> 25a                                                 
    0.011242  5a -> 34a                                                 
    0.011077  5a -> 50a                                                 
   -0.013460  2b 3b -> 4b 12b                                           
   -0.016420  2b 3b -> 5b 14b                                           
   -0.010121  2b 3b -> 10b 16b                                          
   -0.010413  2b 3b -> 4b 28b                                           
   -0.013042  2b 3b -> 5b 30b                                           
   -0.010069  2a 2b -> 10a 10b                                          
   -0.010160  2a 2b -> 26a 26b                                          
   -0.012362  3a 3b -> 11a 15b                                          
   -0.010567  3a 3b -> 11a 31b                                          
   -0.013378  3a 3b -> 27a 31b                                          
   -0.012395  3a 3b -> 14a 14b                                          
   -0.010317  3a 3b -> 14a 30b                                          
   -0.013377  3a 3b -> 30a 30b                                          
   -0.012362  3a 3b -> 12a 12b                                          
   -0.010567  3a 3b -> 12a 28b                                          
   -0.013377  3a 3b -> 28a 28b                                          
   -0.025684  3a 3b -> 7a 7b                                            
    0.025919  3a 3b -> 16a 7b                                           
   -0.010483  3a 3b -> 32a 7b                                           
   -0.028238  3a 3b -> 7a 16b                                           
    0.034308  3a 3b -> 16a 16b                                          
   -0.018312  3a 3b -> 32a 16b                                          
   -0.012352  3a 3b -> 7a 32b                                           
    0.019236  3a 3b -> 16a 32b                                          
   -0.016327  3a 3b -> 32a 32b                                          
   -0.012426  2a 2b -> 9a 5b                                            
    0.012439  2a 2b -> 18a 5b                                           
   -0.010685  3a 3b -> 9a 5b                                            
   -0.020322  5a 3b -> 7a 5b                                            
    0.012169  5a 3b -> 16a 5b                                           
   -0.017816  5a 3b -> 9a 7b                                            
    0.019912  5a 3b -> 18a 7b                                           
   -0.019002  5a 3b -> 9a 16b                                           
    0.025151  5a 3b -> 18a 16b                                          
   -0.014399  5a 3b -> 34a 16b                                          
    0.013980  5a 3b -> 18a 32b                                          
   -0.011885  5a 3b -> 34a 32b                                          
   -0.015455  4a 3b -> 7a 4b                                            
   -0.012194  4a 3b -> 7a 8b                                            
   -0.018062  4a 3b -> 8a 7b                                            
    0.019578  4a 3b -> 17a 7b                                           
   -0.019381  4a 3b -> 8a 16b                                           
    0.024877  4a 3b -> 17a 16b                                          
   -0.014089  4a 3b -> 33a 16b                                          
    0.013933  4a 3b -> 17a 32b                                          
   -0.011737  4a 3b -> 33a 32b                                          
   -0.014080  2a 3b -> 10a 7b                                           
    0.010120  2a 3b -> 26a 7b                                           
    0.010452  2a 3b -> 6a 16b                                           
   -0.018553  2a 3b -> 10a 16b                                          
    0.016058  2a 3b -> 26a 16b                                          
   -0.010384  2a 3b -> 10a 32b                                          
    0.012125  2a 3b -> 26a 32b                                          
   -0.013182  2a 3b -> 30a 5b                                           
   -0.023138  3a 2b -> 14a 5b                                           
   -0.024187  3a 2b -> 30a 5b                                           
   -0.010595  3a 2b -> 54a 5b                                           
   -0.010417  2a 3b -> 28a 4b                                           
   -0.019299  3a 2b -> 12a 4b                                           
   -0.018954  3a 2b -> 28a 4b                                           
   -0.012712  3a 2b -> 12a 8b                                           
   -0.014054  3a 2b -> 28a 8b                                           
   -0.011314  3a 2b -> 7a 10b                                           
    0.014584  3a 2b -> 16a 10b                                          
   -0.012734  3a 2b -> 16a 26b                                          
    0.010122  3a 2b -> 32a 26b                                          
    0.019311  4a 2b -> 11a 4b                                           
   -0.011809  4a 2b -> 15a 4b                                           
    0.018954  4a 2b -> 27a 4b                                           
    0.011683  4a 2b -> 31a 4b                                           
    0.012824  4a 2b -> 11a 8b                                           
    0.014044  4a 2b -> 27a 8b                                           
   -0.023567  4a 2b -> 13a 5b                                           
   -0.024841  4a 2b -> 29a 5b                                           
   -0.010811  4a 2b -> 53a 5b                                           
   -0.010457  4a 2b -> 8a 10b                                           
    0.014338  4a 2b -> 17a 10b                                          
   -0.012568  4a 2b -> 17a 26b                                          
    0.010175  4a 2b -> 33a 26b                                          
    0.010507  5a 2b -> 6a 5b                                            
   -0.014970  5a 2b -> 10a 5b                                           
    0.026318  5a 2b -> 15a 5b                                           
   -0.028349  5a 2b -> 31a 5b                                           
    0.012509  5a 2b -> 55a 5b                                           
   -0.019491  5a 2b -> 13a 4b                                           
   -0.019636  5a 2b -> 29a 4b                                           
   -0.012907  5a 2b -> 13a 8b                                           
   -0.014521  5a 2b -> 29a 8b                                           
   -0.010278  5a 2b -> 9a 10b                                           
    0.014497  5a 2b -> 18a 10b                                          
   -0.012732  5a 2b -> 18a 26b                                          
    0.010295  5a 2b -> 34a 26b                                          
   -0.010848  4a 5a -> 9a 17a                                           
    0.011245  4a 5a -> 8a 18a                                           
   -0.015178  4a 5a -> 17a 18a                                          
   -0.010675  4a 5a -> 29a 31a                                          
   -0.010216  3a 5a -> 7a 9a                                            
   -0.010762  3a 5a -> 9a 16a                                           
    0.012167  3a 5a -> 7a 18a                                           
   -0.015023  3a 5a -> 16a 18a                                          
   -0.010776  3a 5a -> 30a 31a                                          
   -0.010362  3a 4a -> 7a 8a                                            
   -0.011550  3a 4a -> 11a 12a                                          
   -0.010985  3a 4a -> 8a 16a                                           
    0.011976  3a 4a -> 7a 17a                                           
   -0.014868  3a 4a -> 16a 17a                                          
   -0.012463  3a 4a -> 27a 28a                                          
 
 ************************ 2025-08-26 22:29:24 *************************
                      Normal termination of mrcc.
 **********************************************************************
Program finished with exit code 0 at: Tue 26 Aug 2025 10:29:24 PM EDT
