#INFO: **** input file is /lustre09/project/6004934/jaafar1/PySCF-MRCC/Oxygen/NewChapter-Anion/1-/dawCV2Z/UHF/input.py ****
import pyscf
from pyscf import cc, lib, tools, scf, symm, ao2mo
from pyscf.gto.basis import parse_gaussian
from pyscf.scf import atom_hf

name = 'out'
mol = pyscf.M(
    atom = '''
        O
    ''',
    unit = 'angstrom',
    basis = {
            'O' : parse_gaussian.load('O-d-aug-cc-pwCVDZ.gbs', 'O')
    },
    charge = -1,
    spin = 1,
    symmetry = True,
    verbose = 9,
    symmetry_subgroup = 'D2h',
    output = name +'.txt',
    max_memory = 4000,
)

original_AtomSphAverageRHF = atom_hf.AtomSphAverageRHF

class CustomAtomSphAverageRHF(original_AtomSphAverageRHF):
    def __init__(self, mol):
        super().__init__(mol)
        self.max_cycle = 9999
        self.direct_scf = False

atom_hf.AtomSphAverageRHF = CustomAtomSphAverageRHF

mf = mol.UHF().set(
    conv_tol=1e-15,
    max_cycle=9999,
    ddm_tol=1e-14,
    direct_scf=False,
    chkfile=name + '.chk',
    init_guess='atom',
    irrep_nelec={'Ag': 4, 'B3u': 2, 'B2u': 2, 'B1u': 1}
)

mf.kernel()

atom_hf.AtomSphAverageRHF = original_AtomSphAverageRHF

#pyscf.tools.fcidump.from_chkfile_uhf('FCIdump',name+'.chk',tol=1e-18, float_format='% 0.20E',molpro_orbsym=False,orbsym=None)
pyscf.tools.fcidump.from_scf_uhf(mf,'fort.55',tol=1e-18, float_format='% 0.20E',molpro_orbsym=False)
#MRCCInterface.run_mrcc(mf, fort_file='fort.55', mrcc_input_file='MINP', tol=1e-18, float_format='% 0.20E', molpro_orbsym=False)
#INFO: ******************** input file end ********************


System: uname_result(system='Linux', node='rc32114', release='5.14.0-687.5.4.el9_8.x86_64', version='#1 SMP PREEMPT_DYNAMIC Thu May 28 09:20:26 EDT 2026', machine='x86_64')  Threads 4
Python 3.13.2 (main, Feb  5 2025, 15:06:39) [GCC 13.3.0]
numpy 2.2.2  scipy 1.15.1  h5py 3.13.0
Date: Sat Jun  6 21:41:46 2026
PySCF version 2.10.0
PySCF path  /home/jaafar1/links/projects/rrg-tzeng/jaafar1/VENV/MRCCInterface/lib/python3.13/site-packages/pyscf

[CONFIG] ARGPARSE = False
[CONFIG] DEBUG = False
[CONFIG] MAX_MEMORY = 4000
[CONFIG] TMPDIR = /tmp
[CONFIG] UNIT = angstrom
[CONFIG] VERBOSE = 3
[CONFIG] conf_file = None
[INPUT] verbose = 9
[INPUT] max_memory = 4000 
[INPUT] num. atoms = 1
[INPUT] num. electrons = 9
[INPUT] charge = -1
[INPUT] spin (= nelec alpha-beta = 2S) = 1
[INPUT] symmetry True subgroup D2h
[INPUT] Mole.unit = angstrom
[INPUT] Symbol           X                Y                Z      unit          X                Y                Z       unit  Magmom
[INPUT]  1 O      0.000000000000   0.000000000000   0.000000000000 AA    0.000000000000   0.000000000000   0.000000000000 Bohr   0.0
[INPUT] ---------------- BASIS SET ---------------- 
[INPUT] l, kappa, [nprim/nctr], expnt,             c_1 c_2 ...
[INPUT] O
[INPUT] 0    0    [9    /2   ]  11720             0.00071 -0.00016
                                1759              0.00547 -0.001263
                                400.8             0.027837 -0.006267
                                113.7             0.1048 -0.025716
                                37.03             0.283062 -0.070924
                                13.27             0.448719 -0.165411
                                5.025             0.270952 -0.116955
                                1.013             0.015458 0.557368
                                0.3023            -0.002585 0.572759
[INPUT] 0    0    [1    /1   ]  5.459                1
[INPUT] 0    0    [1    /1   ]  0.3023               1
[INPUT] 0    0    [1    /1   ]  0.07896              1
[INPUT] 0    0    [1    /1   ]  0.0206               1
[INPUT] 1    0    [1    /1   ]  17.7                 1
[INPUT] 1    0    [4    /1   ]  13.32             0.043018
                                3.854             0.228913
                                1.046             0.508728
                                0.2753            0.460531
[INPUT] 1    0    [1    /1   ]  0.2753               1
[INPUT] 1    0    [1    /1   ]  0.06856              1
[INPUT] 1    0    [1    /1   ]  0.0171               1
[INPUT] 2    0    [1    /1   ]  1.185                1
[INPUT] 2    0    [1    /1   ]  0.332                1
[INPUT] 2    0    [1    /1   ]  0.093                1

nuclear repulsion = 0
point group symmetry = SO3, use subgroup D2h
symmetry origin: [0. 0. 0.]
symmetry axis x: [1. 0. 0.]
symmetry axis y: [0. 1. 0.]
symmetry axis z: [0. 0. 1.]
num. orbitals of irrep Ag = 12
num. orbitals of irrep B1g = 3
num. orbitals of irrep B2g = 3
num. orbitals of irrep B3g = 3
num. orbitals of irrep B1u = 5
num. orbitals of irrep B2u = 5
num. orbitals of irrep B3u = 5
number of shells = 13
number of NR pGTOs = 52
number of NR cGTOs = 36
basis = {'O': [[0, [11720.0, 0.00071, -0.00016], [1759.0, 0.00547, -0.001263], [400.8, 0.027837, -0.006267], [113.7, 0.1048, -0.025716], [37.03, 0.283062, -0.070924], [13.27, 0.448719, -0.165411], [5.025, 0.270952, -0.116955], [1.013, 0.015458, 0.557368], [0.3023, -0.002585, 0.572759]], [0, [5.459, 1.0]], [0, [0.3023, 1.0]], [0, [0.07896, 1.0]], [0, [0.0206, 1.0]], [1, [17.7, 1.0]], [1, [13.32, 0.043018], [3.854, 0.228913], [1.046, 0.508728], [0.2753, 0.460531]], [1, [0.2753, 1.0]], [1, [0.06856, 1.0]], [1, [0.0171, 1.0]], [2, [1.185, 1.0]], [2, [0.332, 1.0]], [2, [0.093, 1.0]]]}
ecp = {}
bas 0, expnt(s) = [1.172e+04 1.759e+03 4.008e+02 1.137e+02 3.703e+01 1.327e+01 5.025e+00
 1.013e+00 3.023e-01]
bas 1, expnt(s) = [5.459]
bas 2, expnt(s) = [0.3023]
bas 3, expnt(s) = [0.07896]
bas 4, expnt(s) = [0.0206]
bas 5, expnt(s) = [17.7]
bas 6, expnt(s) = [13.32    3.854   1.046   0.2753]
bas 7, expnt(s) = [0.2753]
bas 8, expnt(s) = [0.06856]
bas 9, expnt(s) = [0.0171]
bas 10, expnt(s) = [1.185]
bas 11, expnt(s) = [0.332]
bas 12, expnt(s) = [0.093]
CPU time:         1.68
arg.atm = [[ 8 20  1 23  0  0]]
arg.bas = [[ 0  0  9  2  0 24 33  0]
 [ 0  0  1  1  0 51 52  0]
 [ 0  0  1  1  0 53 54  0]
 [ 0  0  1  1  0 55 56  0]
 [ 0  0  1  1  0 57 58  0]
 [ 0  1  1  1  0 59 60  0]
 [ 0  1  4  1  0 61 65  0]
 [ 0  1  1  1  0 69 70  0]
 [ 0  1  1  1  0 71 72  0]
 [ 0  1  1  1  0 73 74  0]
 [ 0  2  1  1  0 75 76  0]
 [ 0  2  1  1  0 77 78  0]
 [ 0  2  1  1  0 79 80  0]]
arg.env = [ 0.00000000e+00  0.00000000e+00  0.00000000e+00  0.00000000e+00
  0.00000000e+00  0.00000000e+00  0.00000000e+00  0.00000000e+00
  0.00000000e+00  0.00000000e+00  0.00000000e+00  0.00000000e+00
  0.00000000e+00  0.00000000e+00  0.00000000e+00  0.00000000e+00
  0.00000000e+00  0.00000000e+00  0.00000000e+00  0.00000000e+00
  0.00000000e+00  0.00000000e+00  0.00000000e+00  0.00000000e+00
  1.17200000e+04  1.75900000e+03  4.00800000e+02  1.13700000e+02
  3.70300000e+01  1.32700000e+01  5.02500000e+00  1.01300000e+00
  3.02300000e-01  2.02054829e+00  3.75363365e+00  6.29989616e+00
  9.21927582e+00  1.07352468e+01  7.88211612e+00  2.29752152e+00
  3.94344297e-02 -2.66259024e-03 -4.55334710e-01 -8.66698003e-01
 -1.41830798e+00 -2.26224080e+00 -2.68982218e+00 -2.90557871e+00
 -9.91712777e-01  1.42188405e+00  5.89950534e-01  5.45900000e+00
  9.02297689e+00  3.02300000e-01  1.03001520e+00  7.89600000e-02
  3.76331333e-01  2.06000000e-02  1.37377446e-01  1.77000000e+01
  1.05913416e+02  1.33200000e+01  3.85400000e+00  1.04600000e+00
  2.75300000e-01  3.18528809e+00  3.59689961e+00  1.56591603e+00
  2.67229781e-01  2.75300000e-01  5.81757722e-01  6.85600000e-02
  1.02346478e-01  1.71000000e-02  1.80397091e-02  1.18500000e+00
  3.51185438e+00  3.32000000e-01  3.78896883e-01  9.30000000e-02
  4.08671683e-02]
ecpbas  = []


******** <class 'pyscf.scf.uhf_symm.SymAdaptedUHF'> ********
method = SymAdaptedUHF
initial guess = atom
damping factor = 0
level_shift factor = 0
DIIS = <class 'pyscf.scf.diis.CDIIS'>
diis_start_cycle = 1
diis_space = 8
diis_damp = 0
SCF conv_tol = 1e-15
SCF conv_tol_grad = None
SCF ddm_tol = 1e-14
SCF max_cycles = 9999
direct_scf = False
chkfile to save SCF result = out.chk
max_memory 4000 MB (current use 124 MB)
number electrons alpha = 5  beta = 4
irrep_nelec {'Ag': 4, 'B3u': 2, 'B2u': 2, 'B1u': 1}
Freeze 9 electrons in irreps ['Ag', 'B3u', 'B2u', 'B1u']
    0 free electrons in irreps B1g B2g B3g
cond(S) = 148.57587099357366

WARN: Singularity detected in overlap matrix (condition number =  149). SCF may be inaccurate and hard to converge.

Set gradient conv threshold to 3.16228e-08
Spherically averaged atomic HF for {'O'}


******** <class '__main__.CustomAtomSphAverageRHF'> ********
method = CustomAtomSphAverageRHF
initial guess = minao
damping factor = 0
level_shift factor = 0
DIIS = <class 'pyscf.scf.diis.CDIIS'>
diis_start_cycle = 1
diis_space = 8
diis_damp = 0
SCF conv_tol = 1e-09
SCF conv_tol_grad = None
SCF ddm_tol = 1e-10
SCF max_cycles = 9999
direct_scf = False
chkfile to save SCF result = /tmp/tmpr13eyn3v
max_memory 4000 MB (current use 125 MB)
atom = O
Set gradient conv threshold to 3.16228e-05
Initial guess from minao.
Nelec from initial guess = 7.998127857261575
E1 = -103.09586381811145  E_coul = 28.843078881838643
init E= -74.2527849362728
l = 0  e_0 = -20.6873879
l = 0  e_1 = -1.26044856
l = 0  e_2 = 0.0356012772
l = 0  e_3 = 0.26809223
l = 0  e_4 = 1.79839991
l = 0  e_5 = 20.4900787
l = 1  e_0 = -0.383994794
l = 1  e_1 = 0.0420111919
l = 1  e_2 = 0.24296149
l = 1  e_3 = 1.36171327
l = 1  e_4 = 25.5342416
l = 2  e_0 = 0.301746805
l = 2  e_1 = 1.12048165
l = 2  e_2 = 3.60100789
    CPU time for initialize scf      0.07 sec, wall time      0.07 sec
l = 0  e_0 = -20.6873879
l = 0  e_1 = -1.26044856
l = 0  e_2 = 0.0356012772
l = 0  e_3 = 0.26809223
l = 0  e_4 = 1.79839991
l = 0  e_5 = 20.4900787
l = 1  e_0 = -0.383994794
l = 1  e_1 = 0.0420111919
l = 1  e_2 = 0.24296149
l = 1  e_3 = 1.36171327
l = 1  e_4 = 25.5342416
l = 2  e_0 = 0.301746805
l = 2  e_1 = 1.12048165
l = 2  e_2 = 3.60100789
l = 0  occ = 2 + 0
l = 1  occ = 0 + 1.333
l = 2  occ = 0 + 0
l = 3  occ = 0 + 0
E1 = -102.2480721015224  E_coul = 27.978983769472112
cycle= 1 E= -74.2690883320503  delta_E= -0.0163  |g|=    0  |ddm|= 0.199
    CPU time for cycle= 1      0.01 sec, wall time      0.00 sec
diis-norm(errvec)=0.154923
diis-c [-0.02400103  1.        ]
l = 0  e_0 = -20.8946653
l = 0  e_1 = -1.34484489
l = 0  e_2 = 0.0348453186
l = 0  e_3 = 0.258223643
l = 0  e_4 = 1.73765296
l = 0  e_5 = 20.3168972
l = 1  e_0 = -0.453664478
l = 1  e_1 = 0.0419315828
l = 1  e_2 = 0.237012265
l = 1  e_3 = 1.30618883
l = 1  e_4 = 25.3372679
l = 2  e_0 = 0.299909122
l = 2  e_1 = 1.09735194
l = 2  e_2 = 3.52890274
l = 0  occ = 2 + 0
l = 1  occ = 0 + 1.333
l = 2  occ = 0 + 0
l = 3  occ = 0 + 0
E1 = -102.71310632042659  E_coul = 28.442154076399913
cycle= 2 E= -74.2709522440267  delta_E= -0.00186  |g|=    0  |ddm|= 0.156
    CPU time for cycle= 2      0.01 sec, wall time      0.00 sec
diis-norm(errvec)=0.071197
diis-c [-3.11626949e-04  3.09455831e-01  6.90544169e-01]
l = 0  e_0 = -20.8157011
l = 0  e_1 = -1.31666933
l = 0  e_2 = 0.0352731726
l = 0  e_3 = 0.261745757
l = 0  e_4 = 1.75843363
l = 0  e_5 = 20.3812179
l = 1  e_0 = -0.42708616
l = 1  e_1 = 0.0420579443
l = 1  e_2 = 0.239580858
l = 1  e_3 = 1.32751748
l = 1  e_4 = 25.4112806
l = 2  e_0 = 0.300924245
l = 2  e_1 = 1.10619921
l = 2  e_2 = 3.5556455
l = 0  occ = 2 + 0
l = 1  occ = 0 + 1.333
l = 2  occ = 0 + 0
l = 3  occ = 0 + 0
E1 = -102.55208387351915  E_coul = 28.28053468353739
cycle= 3 E= -74.2715491899818  delta_E= -0.000597  |g|=    0  |ddm|= 0.0318
    CPU time for cycle= 3      0.01 sec, wall time      0.00 sec
diis-norm(errvec)=0.0059007
diis-c [-2.73800343e-06 -9.04817661e-02 -1.18093288e-01  1.20857505e+00]
l = 0  e_0 = -20.8181281
l = 0  e_1 = -1.3182387
l = 0  e_2 = 0.0352687284
l = 0  e_3 = 0.261583217
l = 0  e_4 = 1.757501
l = 0  e_5 = 20.3791183
l = 1  e_0 = -0.427499771
l = 1  e_1 = 0.0420593887
l = 1  e_2 = 0.2395792
l = 1  e_3 = 1.32718766
l = 1  e_4 = 25.4090255
l = 2  e_0 = 0.300940836
l = 2  e_1 = 1.10606056
l = 2  e_2 = 3.5551087
l = 0  occ = 2 + 0
l = 1  occ = 0 + 1.333
l = 2  occ = 0 + 0
l = 3  occ = 0 + 0
E1 = -102.55826074718195  E_coul = 28.28670776643525
cycle= 4 E= -74.2715529807467  delta_E= -3.79e-06  |g|=    0  |ddm|= 0.00808
    CPU time for cycle= 4      0.00 sec, wall time      0.00 sec
diis-norm(errvec)=0.000441358
diis-c [-6.95056414e-09  3.03064524e-03  7.17299350e-03 -8.63740615e-02
  1.07617042e+00]
l = 0  e_0 = -20.8184112
l = 0  e_1 = -1.31841789
l = 0  e_2 = 0.0352618567
l = 0  e_3 = 0.261541192
l = 0  e_4 = 1.75735552
l = 0  e_5 = 20.378854
l = 1  e_0 = -0.427618776
l = 1  e_1 = 0.0420581692
l = 1  e_2 = 0.239557681
l = 1  e_3 = 1.32706975
l = 1  e_4 = 25.4087583
l = 2  e_0 = 0.300926231
l = 2  e_1 = 1.10599278
l = 2  e_2 = 3.55495482
l = 0  occ = 2 + 0
l = 1  occ = 0 + 1.333
l = 2  occ = 0 + 0
l = 3  occ = 0 + 0
E1 = -102.55892807161854  E_coul = 28.287375071702307
cycle= 5 E= -74.2715529999162  delta_E= -1.92e-08  |g|=    0  |ddm|= 0.0005
    CPU time for cycle= 5      0.01 sec, wall time      0.00 sec
diis-norm(errvec)=1.32281e-05
diis-c [-4.05505829e-11 -3.54367045e-04 -8.72237369e-04  1.05968511e-02
 -1.50870663e-01  1.14150042e+00]
l = 0  e_0 = -20.8184151
l = 0  e_1 = -1.31842464
l = 0  e_2 = 0.035261247
l = 0  e_3 = 0.261538748
l = 0  e_4 = 1.75735054
l = 0  e_5 = 20.3788493
l = 1  e_0 = -0.427623897
l = 1  e_1 = 0.0420581189
l = 1  e_2 = 0.239556593
l = 1  e_3 = 1.32706513
l = 1  e_4 = 25.4087542
l = 2  e_0 = 0.300924741
l = 2  e_1 = 1.10598859
l = 2  e_2 = 3.55494847
l = 0  occ = 2 + 0
l = 1  occ = 0 + 1.333
l = 2  occ = 0 + 0
l = 3  occ = 0 + 0
E1 = -102.55891380705525  E_coul = 28.287360807066456
cycle= 6 E= -74.2715529999888  delta_E= -7.26e-11  |g|=    0  |ddm|= 1.38e-05
    CPU time for cycle= 6      0.01 sec, wall time      0.00 sec
diis-norm(errvec)=2.96235e-06
diis-c [-1.20204168e-13 -1.40133139e-05  8.89976007e-06  6.33589092e-05
 -3.00580966e-04 -8.63355872e-02  1.08657792e+00]
l = 0  e_0 = -20.8184176
l = 0  e_1 = -1.31842616
l = 0  e_2 = 0.0352611729
l = 0  e_3 = 0.261538383
l = 0  e_4 = 1.7573493
l = 0  e_5 = 20.378847
l = 1  e_0 = -0.427625129
l = 1  e_1 = 0.0420581071
l = 1  e_2 = 0.239556385
l = 1  e_3 = 1.327064
l = 1  e_4 = 25.4087518
l = 2  e_0 = 0.300924573
l = 2  e_1 = 1.1059879
l = 2  e_2 = 3.55494699
l = 0  occ = 2 + 0
l = 1  occ = 0 + 1.333
l = 2  occ = 0 + 0
l = 3  occ = 0 + 0
E1 = -102.55891822188627  E_coul = 28.287365221896387
cycle= 7 E= -74.2715529999899  delta_E= -1.11e-12  |g|=    0  |ddm|= 3.03e-06
    CPU time for cycle= 7      0.00 sec, wall time      0.00 sec
diis-norm(errvec)=5.21454e-08
diis-c [-1.21193144e-16  2.96011365e-06  1.53212044e-06 -3.46162305e-05
  4.25713685e-04  9.20870501e-03 -1.35000781e-01  1.12539649e+00]
l = 0  e_0 = -20.8184175
l = 0  e_1 = -1.31842614
l = 0  e_2 = 0.0352611733
l = 0  e_3 = 0.261538389
l = 0  e_4 = 1.75734932
l = 0  e_5 = 20.3788471
l = 1  e_0 = -0.427625116
l = 1  e_1 = 0.0420581071
l = 1  e_2 = 0.239556386
l = 1  e_3 = 1.32706401
l = 1  e_4 = 25.4087518
l = 2  e_0 = 0.300924575
l = 2  e_1 = 1.10598791
l = 2  e_2 = 3.55494701
l = 0  occ = 2 + 0
l = 1  occ = 0 + 1.333
l = 2  occ = 0 + 0
l = 3  occ = 0 + 0
E1 = -102.55891818637656  E_coul = 28.287365186386626
cycle= 8 E= -74.2715529999899  delta_E= -4.26e-14  |g|=    0  |ddm|= 2.74e-08
    CPU time for cycle= 8      0.01 sec, wall time      0.00 sec
diis-norm(errvec)=1.09898e-09
Linear dependence found in DIIS error vectors.
diis-c [-9.13197006e-16  1.25389044e-06  8.00152958e-07 -1.56788843e-05
  1.95312218e-04  3.46771204e-03 -5.29573904e-02  4.90232984e-01
  5.59075007e-01]
l = 0  e_0 = -20.8184175
l = 0  e_1 = -1.31842614
l = 0  e_2 = 0.0352611734
l = 0  e_3 = 0.261538389
l = 0  e_4 = 1.75734932
l = 0  e_5 = 20.3788471
l = 1  e_0 = -0.427625117
l = 1  e_1 = 0.0420581071
l = 1  e_2 = 0.239556386
l = 1  e_3 = 1.32706401
l = 1  e_4 = 25.4087518
l = 2  e_0 = 0.300924575
l = 2  e_1 = 1.10598791
l = 2  e_2 = 3.55494701
l = 0  occ = 2 + 0
l = 1  occ = 0 + 1.333
l = 2  occ = 0 + 0
l = 3  occ = 0 + 0
E1 = -102.55891818576316  E_coul = 28.28736518577331
cycle= 9 E= -74.2715529999899  delta_E= 8.53e-14  |g|=    0  |ddm|= 4.69e-10
    CPU time for cycle= 9      0.01 sec, wall time      0.00 sec
diis-norm(errvec)=7.74956e-10
Linear dependence found in DIIS error vectors.
diis-c [-8.48548565e-16  3.52902460e-01 -8.79952570e-07  6.20650191e-06
 -4.28037100e-05  2.64254888e-03 -2.79649465e-02  3.19532762e-01
  3.52924653e-01]
l = 0  e_0 = -20.8184175
l = 0  e_1 = -1.31842613
l = 0  e_2 = 0.0352611734
l = 0  e_3 = 0.261538389
l = 0  e_4 = 1.75734932
l = 0  e_5 = 20.3788471
l = 1  e_0 = -0.427625116
l = 1  e_1 = 0.0420581071
l = 1  e_2 = 0.239556386
l = 1  e_3 = 1.32706401
l = 1  e_4 = 25.4087518
l = 2  e_0 = 0.300924575
l = 2  e_1 = 1.10598791
l = 2  e_2 = 3.55494701
l = 0  occ = 2 + 0
l = 1  occ = 0 + 1.333
l = 2  occ = 0 + 0
l = 3  occ = 0 + 0
E1 = -102.55891817997507  E_coul = 28.287365179985148
cycle= 10 E= -74.2715529999899  delta_E= -7.11e-14  |g|=    0  |ddm|= 2.19e-09
    CPU time for cycle= 10      0.00 sec, wall time      0.00 sec
diis-norm(errvec)=2.8103e-09
Linear dependence found in DIIS error vectors.
diis-c [-3.73222934e-17  2.52915387e-01  2.52688858e-01 -7.46643737e-07
  5.94640119e-05  2.36261392e-04 -6.11129510e-03  2.47305414e-01
  2.52906658e-01]
l = 0  e_0 = -20.8184175
l = 0  e_1 = -1.31842614
l = 0  e_2 = 0.0352611734
l = 0  e_3 = 0.261538389
l = 0  e_4 = 1.75734932
l = 0  e_5 = 20.3788471
l = 1  e_0 = -0.427625116
l = 1  e_1 = 0.0420581071
l = 1  e_2 = 0.239556386
l = 1  e_3 = 1.32706401
l = 1  e_4 = 25.4087518
l = 2  e_0 = 0.300924575
l = 2  e_1 = 1.10598791
l = 2  e_2 = 3.55494701
l = 0  occ = 2 + 0
l = 1  occ = 0 + 1.333
l = 2  occ = 0 + 0
l = 3  occ = 0 + 0
E1 = -102.55891818274802  E_coul = 28.287365182758084
cycle= 11 E= -74.2715529999899  delta_E= -1.42e-14  |g|=    0  |ddm|= 1.38e-09
    CPU time for cycle= 11      0.01 sec, wall time      0.00 sec
diis-norm(errvec)=1.61367e-09
Linear dependence found in DIIS error vectors.
diis-c [-1.69758026e-16  2.01617822e-01  2.01404697e-01  2.01486063e-01
  3.58976640e-05  2.08522645e-04 -4.31220445e-03  1.97947727e-01
  2.01611475e-01]
l = 0  e_0 = -20.8184175
l = 0  e_1 = -1.31842614
l = 0  e_2 = 0.0352611734
l = 0  e_3 = 0.261538389
l = 0  e_4 = 1.75734932
l = 0  e_5 = 20.3788471
l = 1  e_0 = -0.427625116
l = 1  e_1 = 0.0420581071
l = 1  e_2 = 0.239556386
l = 1  e_3 = 1.32706401
l = 1  e_4 = 25.4087518
l = 2  e_0 = 0.300924575
l = 2  e_1 = 1.10598791
l = 2  e_2 = 3.55494701
l = 0  occ = 2 + 0
l = 1  occ = 0 + 1.333
l = 2  occ = 0 + 0
l = 3  occ = 0 + 0
E1 = -102.55891818263854  E_coul = 28.28736518264869
cycle= 12 E= -74.2715529999899  delta_E= 8.53e-14  |g|=    0  |ddm|= 2.7e-10
    CPU time for cycle= 12      0.01 sec, wall time      0.00 sec
diis-norm(errvec)=1.53363e-09
Linear dependence found in DIIS error vectors.
diis-c [-9.52440997e-16  1.66384421e-01  1.66205784e-01  1.66298481e-01
  1.66293725e-01  7.14575743e-05  8.07524149e-04  1.67557368e-01
  1.66381240e-01]
l = 0  e_0 = -20.8184175
l = 0  e_1 = -1.31842614
l = 0  e_2 = 0.0352611734
l = 0  e_3 = 0.261538389
l = 0  e_4 = 1.75734932
l = 0  e_5 = 20.3788471
l = 1  e_0 = -0.427625116
l = 1  e_1 = 0.0420581071
l = 1  e_2 = 0.239556386
l = 1  e_3 = 1.32706401
l = 1  e_4 = 25.4087518
l = 2  e_0 = 0.300924575
l = 2  e_1 = 1.10598791
l = 2  e_2 = 3.55494701
l = 0  occ = 2 + 0
l = 1  occ = 0 + 1.333
l = 2  occ = 0 + 0
l = 3  occ = 0 + 0
E1 = -102.55891818389404  E_coul = 28.287365183904136
cycle= 13 E= -74.2715529999899  delta_E= -4.26e-14  |g|=    0  |ddm|= 1.64e-09
    CPU time for cycle= 13      0.01 sec, wall time      0.00 sec
diis-norm(errvec)=1.48589e-09
Linear dependence found in DIIS error vectors.
diis-c [-6.67955489e-17  1.42617026e-01  1.42480301e-01  1.42556495e-01
  1.42552471e-01  1.42590494e-01  8.88517634e-04  1.43704928e-01
  1.42609768e-01]
l = 0  e_0 = -20.8184175
l = 0  e_1 = -1.31842614
l = 0  e_2 = 0.0352611734
l = 0  e_3 = 0.261538389
l = 0  e_4 = 1.75734932
l = 0  e_5 = 20.3788471
l = 1  e_0 = -0.427625117
l = 1  e_1 = 0.0420581071
l = 1  e_2 = 0.239556386
l = 1  e_3 = 1.32706401
l = 1  e_4 = 25.4087518
l = 2  e_0 = 0.300924575
l = 2  e_1 = 1.10598791
l = 2  e_2 = 3.55494701
l = 0  occ = 2 + 0
l = 1  occ = 0 + 1.333
l = 2  occ = 0 + 0
l = 3  occ = 0 + 0
E1 = -102.55891818453506  E_coul = 28.287365184545134
cycle= 14 E= -74.2715529999899  delta_E= -2.84e-14  |g|=    0  |ddm|= 3.13e-10
    CPU time for cycle= 14      0.01 sec, wall time      0.00 sec
diis-norm(errvec)=1.29943e-09
Linear dependence found in DIIS error vectors.
diis-c [-4.1157153e-16  1.2500000e-01  1.2500000e-01  1.2500000e-01
  1.2500000e-01  1.2500000e-01  1.2500000e-01  1.2500000e-01
  1.2500000e-01]
l = 0  e_0 = -20.8184175
l = 0  e_1 = -1.31842614
l = 0  e_2 = 0.0352611734
l = 0  e_3 = 0.261538389
l = 0  e_4 = 1.75734932
l = 0  e_5 = 20.3788471
l = 1  e_0 = -0.427625116
l = 1  e_1 = 0.0420581071
l = 1  e_2 = 0.239556386
l = 1  e_3 = 1.32706401
l = 1  e_4 = 25.4087518
l = 2  e_0 = 0.300924575
l = 2  e_1 = 1.10598791
l = 2  e_2 = 3.55494701
l = 0  occ = 2 + 0
l = 1  occ = 0 + 1.333
l = 2  occ = 0 + 0
l = 3  occ = 0 + 0
E1 = -102.55891818247338  E_coul = 28.287365182483462
cycle= 15 E= -74.2715529999899  delta_E=    0  |g|=    0  |ddm|= 2.97e-10
    CPU time for cycle= 15      0.00 sec, wall time      0.00 sec
diis-norm(errvec)=1.45135e-09
Linear dependence found in DIIS error vectors.
diis-c [-2.89052492e-16  1.25000000e-01  1.25000000e-01  1.25000000e-01
  1.25000000e-01  1.25000000e-01  1.25000000e-01  1.25000000e-01
  1.25000000e-01]
l = 0  e_0 = -20.8184175
l = 0  e_1 = -1.31842614
l = 0  e_2 = 0.0352611734
l = 0  e_3 = 0.261538389
l = 0  e_4 = 1.75734932
l = 0  e_5 = 20.3788471
l = 1  e_0 = -0.427625117
l = 1  e_1 = 0.0420581071
l = 1  e_2 = 0.239556386
l = 1  e_3 = 1.32706401
l = 1  e_4 = 25.4087518
l = 2  e_0 = 0.300924575
l = 2  e_1 = 1.10598791
l = 2  e_2 = 3.55494701
l = 0  occ = 2 + 0
l = 1  occ = 0 + 1.333
l = 2  occ = 0 + 0
l = 3  occ = 0 + 0
E1 = -102.55891818544912  E_coul = 28.287365185459326
cycle= 16 E= -74.2715529999898  delta_E= 1.28e-13  |g|=    0  |ddm|= 6.3e-10
    CPU time for cycle= 16      0.01 sec, wall time      0.00 sec
diis-norm(errvec)=3.77727e-10
Linear dependence found in DIIS error vectors.
diis-c [-2.89052492e-16  1.25000000e-01  1.25000000e-01  1.25000000e-01
  1.25000000e-01  1.25000000e-01  1.25000000e-01  1.25000000e-01
  1.25000000e-01]
l = 0  e_0 = -20.8184175
l = 0  e_1 = -1.31842614
l = 0  e_2 = 0.0352611734
l = 0  e_3 = 0.261538389
l = 0  e_4 = 1.75734932
l = 0  e_5 = 20.3788471
l = 1  e_0 = -0.427625117
l = 1  e_1 = 0.0420581071
l = 1  e_2 = 0.239556386
l = 1  e_3 = 1.32706401
l = 1  e_4 = 25.4087518
l = 2  e_0 = 0.300924575
l = 2  e_1 = 1.10598791
l = 2  e_2 = 3.55494701
l = 0  occ = 2 + 0
l = 1  occ = 0 + 1.333
l = 2  occ = 0 + 0
l = 3  occ = 0 + 0
E1 = -102.5589181854811  E_coul = 28.28736518549118
cycle= 17 E= -74.2715529999899  delta_E= -1.28e-13  |g|=    0  |ddm|= 2.85e-11
    CPU time for cycle= 17      0.01 sec, wall time      0.00 sec
l = 0  e_0 = -20.8184175
l = 0  e_1 = -1.31842614
l = 0  e_2 = 0.0352611734
l = 0  e_3 = 0.261538389
l = 0  e_4 = 1.75734932
l = 0  e_5 = 20.3788471
l = 1  e_0 = -0.427625117
l = 1  e_1 = 0.0420581071
l = 1  e_2 = 0.239556386
l = 1  e_3 = 1.32706401
l = 1  e_4 = 25.4087518
l = 2  e_0 = 0.300924575
l = 2  e_1 = 1.10598791
l = 2  e_2 = 3.55494701
l = 0  occ = 2 + 0
l = 1  occ = 0 + 1.333
l = 2  occ = 0 + 0
l = 3  occ = 0 + 0
E1 = -102.55891818438121  E_coul = 28.287365184391323
Extra cycle  E= -74.2715529999899  delta_E= 2.84e-14  |g|=    0  |ddm|= 2.85e-11
    CPU time for scf_cycle      0.19 sec, wall time      0.10 sec
    CPU time for SCF      0.20 sec, wall time      0.10 sec
Atomic HF for atom  O  converged. SCF energy = -74.2715529999899

Atom O, E = -74.271553
Nelec from initial guess = (np.float64(3.9999999999999982), np.float64(3.9999999999999982))
E1 = -102.55891818438121  Ecoul = 28.28736518439132
init E= -74.2715529999899
    CPU time for initialize scf      0.25 sec, wall time      0.21 sec
alpha HOMO (B1u) = -0.427625116725672  LUMO (Ag) = 0.0352611733654417
alpha irrep_nelec = [2, 0, 0, 0, 1, 1, 1]
beta  irrep_nelec = [2, 0, 0, 0, 0, 1, 1]
alpha-Ag nocc = 2  HOMO = -1.31842613571203  LUMO = 0.0352611733654417
   mo_energy = [-20.81841754  -1.31842614   0.03526117   0.26153839   0.30092458
   0.30092458   1.10598791   1.10598791   1.75734932   3.55494701
   3.55494701  20.37884705]
alpha-B1g nocc = 0
   mo_energy = [0.30092458 1.10598791 3.55494701]
alpha-B2g nocc = 0
   mo_energy = [0.30092458 1.10598791 3.55494701]
alpha-B3g nocc = 0
   mo_energy = [0.30092458 1.10598791 3.55494701]
alpha-B1u nocc = 1  HOMO = -0.427625116725672  LUMO = 0.042058107111106
   mo_energy = [-0.42762512  0.04205811  0.23955639  1.32706401 25.40875179]
alpha-B2u nocc = 1  HOMO = -0.427625116725675  LUMO = 0.0420581071111057
   mo_energy = [-0.42762512  0.04205811  0.23955639  1.32706401 25.40875179]
alpha-B3u nocc = 1  HOMO = -0.427625116725672  LUMO = 0.0420581071111056
   mo_energy = [-0.42762512  0.04205811  0.23955639  1.32706401 25.40875179]
beta-Ag nocc = 2  HOMO = -1.31842613571203  LUMO = 0.0352611733654417
   mo_energy = [-20.81841754  -1.31842614   0.03526117   0.26153839   0.30092458
   0.30092458   1.10598791   1.10598791   1.75734932   3.55494701
   3.55494701  20.37884705]
beta-B1g nocc = 0
   mo_energy = [0.30092458 1.10598791 3.55494701]
beta-B2g nocc = 0
   mo_energy = [0.30092458 1.10598791 3.55494701]
beta-B3g nocc = 0
   mo_energy = [0.30092458 1.10598791 3.55494701]
beta-B1u nocc = 0
   mo_energy = [-0.42762512  0.04205811  0.23955639  1.32706401 25.40875179]
beta-B2u nocc = 1  HOMO = -0.427625116725675  LUMO = 0.0420581071111057
   mo_energy = [-0.42762512  0.04205811  0.23955639  1.32706401 25.40875179]
beta-B3u nocc = 1  HOMO = -0.427625116725672  LUMO = 0.0420581071111056
   mo_energy = [-0.42762512  0.04205811  0.23955639  1.32706401 25.40875179]
multiplicity <S^2> = 0.75  2S+1 = 2
E1 = -108.70855563912187  Ecoul = 34.00937752245073
cycle= 1 E= -74.6991781166711  delta_E= -0.428  |g|= 0.378  |ddm|= 0.586
    CPU time for cycle= 1      0.03 sec, wall time      0.01 sec
diis-norm(errvec)=0.535055
diis-c [-0.2862837  1.       ]
alpha HOMO (B3u) = 0.0144703169052612  LUMO (B1u) = 0.162547803424663
alpha irrep_nelec = [2, 0, 0, 0, 1, 1, 1]
beta  irrep_nelec = [2, 0, 0, 0, 0, 1, 1]
alpha-Ag nocc = 2  HOMO = -0.723986614962446  LUMO = 0.192419845449181
   mo_energy = [-19.79759472  -0.72398661   0.19241985   0.53629392   0.54637636
   0.56205981   1.51247712   1.5511508    2.32941046   4.15671615
   4.23208749  21.31087385]
alpha-B1g nocc = 0
   mo_energy = [0.54637636 1.5511508  4.23208749]
alpha-B2g nocc = 0
   mo_energy = [0.54015712 1.52218282 4.17492129]
alpha-B3g nocc = 0
   mo_energy = [0.54015712 1.52218282 4.17492129]
alpha-B1u nocc = 1  HOMO = -0.0537100660774105  LUMO = 0.162547803424663
   mo_energy = [-0.05371007  0.1625478   0.4888095   1.84064858 26.36665892]
alpha-B2u nocc = 1  HOMO = 0.014470316905261  LUMO = 0.164055831378172
   mo_energy = [1.44703169e-02 1.64055831e-01 5.04843728e-01 1.89724080e+00
 2.64140062e+01]
alpha-B3u nocc = 1  HOMO = 0.0144703169052612  LUMO = 0.164055831378171
   mo_energy = [1.44703169e-02 1.64055831e-01 5.04843728e-01 1.89724080e+00
 2.64140062e+01]
beta-Ag nocc = 2  HOMO = -0.57717724591247  LUMO = 0.192857161389294
   mo_energy = [-19.76493962  -0.57717725   0.19285716   0.54244603   0.54689518
   0.57274283   1.55738609   1.56809418   2.37235393   4.24550687
   4.26767738  21.34091344]
beta-B1g nocc = 0
   mo_energy = [0.54689518 1.55738609 4.24550687]
beta-B2g nocc = 0
   mo_energy = [0.54384158 1.56498535 4.26153787]
beta-B3g nocc = 0
   mo_energy = [0.54384158 1.56498535 4.26153787]
beta-B1u nocc = 0
   mo_energy = [ 0.16153     0.41731368  0.74963476  2.04626677 26.44109692]
beta-B2u nocc = 1  HOMO = 0.0474523629989288  LUMO = 0.164433502187178
   mo_energy = [ 0.04745236  0.1644335   0.51008772  1.91533168 26.42368553]
beta-B3u nocc = 1  HOMO = 0.0474523629989293  LUMO = 0.164433502187178
   mo_energy = [ 0.04745236  0.1644335   0.51008772  1.91533168 26.42368553]
multiplicity <S^2> = 0.75447514  2S+1 = 2.0044701
E1 = -105.45931808440713  Ecoul = 30.720579168692446
cycle= 2 E= -74.7387389157147  delta_E= -0.0396  |g|= 0.286  |ddm|= 0.316
    CPU time for cycle= 2      0.03 sec, wall time      0.01 sec
diis-norm(errvec)=0.404944
diis-c [-0.00822742  0.42805831  0.57194169]
alpha HOMO (B2u) = -0.124676507389125  LUMO (B1u) = 0.161496936691545
alpha irrep_nelec = [2, 0, 0, 0, 1, 1, 1]
beta  irrep_nelec = [2, 0, 0, 0, 0, 1, 1]
alpha-Ag nocc = 2  HOMO = -0.891883843588385  LUMO = 0.190019116105894
   mo_energy = [-20.21301027  -0.89188384   0.19001912   0.52128069   0.53645449
   0.5372213    1.4480707    1.48873476   2.19134015   3.99092262
   4.06333994  20.96097808]
alpha-B1g nocc = 0
   mo_energy = [0.5372213  1.48873476 4.06333994]
alpha-B2g nocc = 0
   mo_energy = [0.52982534 1.4582686  4.00839243]
alpha-B3g nocc = 0
   mo_energy = [0.52982534 1.4582686  4.00839243]
alpha-B1u nocc = 1  HOMO = -0.203967702498922  LUMO = 0.161496936691545
   mo_energy = [-0.2039677   0.16149694  0.46641046  1.7024366  25.97683059]
alpha-B2u nocc = 1  HOMO = -0.124676507389125  LUMO = 0.163365948058702
   mo_energy = [-0.12467651  0.16336595  0.48347386  1.75819541 26.0192244 ]
alpha-B3u nocc = 1  HOMO = -0.124676507389126  LUMO = 0.163365948058701
   mo_energy = [-0.12467651  0.16336595  0.48347386  1.75819541 26.0192244 ]
beta-Ag nocc = 2  HOMO = -0.742763803228539  LUMO = 0.190377346171453
   mo_energy = [-20.18277908  -0.7427638    0.19037735   0.53347904   0.53684241
   0.5438503    1.49453055   1.50775847   2.23342708   4.0775432
   4.09667914  20.98989061]
beta-B1g nocc = 0
   mo_energy = [0.53684241 1.49453055 4.0775432 ]
beta-B2g nocc = 0
   mo_energy = [0.5345789  1.50390549 4.09135459]
beta-B3g nocc = 0
   mo_energy = [0.5345789  1.50390549 4.09135459]
beta-B1u nocc = 0
   mo_energy = [ 0.16076687  0.38391448  0.62101097  1.8662924  26.04449798]
beta-B2u nocc = 1  HOMO = -0.0857585234610971  LUMO = 0.163509373623283
   mo_energy = [-0.08575852  0.16350937  0.48840912  1.77721784 26.02949969]
beta-B3u nocc = 1  HOMO = -0.0857585234610941  LUMO = 0.163509373623283
   mo_energy = [-0.08575852  0.16350937  0.48840912  1.77721784 26.02949969]
multiplicity <S^2> = 0.754415  2S+1 = 2.0044101
E1 = -106.83242703157505  Ecoul = 32.06364420278343
cycle= 3 E= -74.7687828287916  delta_E= -0.03  |g|= 0.0215  |ddm|= 0.105
    CPU time for cycle= 3      0.03 sec, wall time      0.01 sec
diis-norm(errvec)=0.0304418
diis-c [-6.36189879e-04 -1.05138854e-01 -1.37642756e-01  1.24278161e+00]
alpha HOMO (B3u) = -0.132681490678465  LUMO (B1u) = 0.161487717326177
alpha irrep_nelec = [2, 0, 0, 0, 1, 1, 1]
beta  irrep_nelec = [2, 0, 0, 0, 0, 1, 1]
alpha-Ag nocc = 2  HOMO = -0.900099399430291  LUMO = 0.190261617513935
   mo_energy = [-20.2213772   -0.9000994    0.19026162   0.52149926   0.53644487
   0.53750072   1.44614249   1.48753648   2.18739664   3.98268666
   4.05721051  20.95291679]
alpha-B1g nocc = 0
   mo_energy = [0.53750072 1.48753648 4.05721051]
alpha-B2g nocc = 0
   mo_energy = [0.52995865 1.45643639 4.00056254]
alpha-B3g nocc = 0
   mo_energy = [0.52995865 1.45643639 4.00056254]
alpha-B1u nocc = 1  HOMO = -0.221281785062743  LUMO = 0.161487717326177
   mo_energy = [-0.22128179  0.16148772  0.46514593  1.69384823 25.96812852]
alpha-B2u nocc = 1  HOMO = -0.132681490678465  LUMO = 0.163618744425852
   mo_energy = [-0.13268149  0.16361874  0.48446296  1.75374519 26.01097336]
alpha-B3u nocc = 1  HOMO = -0.132681490678465  LUMO = 0.163618744425852
   mo_energy = [-0.13268149  0.16361874  0.48446296  1.75374519 26.01097336]
beta-Ag nocc = 2  HOMO = -0.743521557728518  LUMO = 0.190445809522507
   mo_energy = [-20.18839935  -0.74352156   0.19044581   0.53275695   0.53612253
   0.54335895   1.49129648   1.50528293   2.23242613   4.07307727
   4.0940628   20.98474947]
beta-B1g nocc = 0
   mo_energy = [0.53612253 1.49129648 4.07307727]
beta-B2g nocc = 0
   mo_energy = [0.53385515 1.50111312 4.08819801]
beta-B3g nocc = 0
   mo_energy = [0.53385515 1.50111312 4.08819801]
beta-B1u nocc = 0
   mo_energy = [ 0.16072639  0.38261589  0.62107091  1.86436815 26.03986786]
beta-B2u nocc = 1  HOMO = -0.0908584822893164  LUMO = 0.163979091511371
   mo_energy = [-0.09085848  0.16397909  0.49086682  1.77629417 26.02352395]
beta-B3u nocc = 1  HOMO = -0.0908584822893157  LUMO = 0.16397909151137
   mo_energy = [-0.09085848  0.16397909  0.49086682  1.77629417 26.02352395]
multiplicity <S^2> = 0.757267  2S+1 = 2.0072538
E1 = -106.79822712260363  Ecoul = 32.028825822179314
cycle= 4 E= -74.7694013004243  delta_E= -0.000618  |g|= 0.0106  |ddm|= 0.0245
    CPU time for cycle= 4      0.03 sec, wall time      0.01 sec
diis-norm(errvec)=0.0150443
diis-c [-1.52963220e-04  4.12351005e-02  4.28463127e-02 -6.33833777e-01
  1.54975236e+00]
alpha HOMO (B2u) = -0.136763196030069  LUMO (B1u) = 0.161336200673806
alpha irrep_nelec = [2, 0, 0, 0, 1, 1, 1]
beta  irrep_nelec = [2, 0, 0, 0, 0, 1, 1]
alpha-Ag nocc = 2  HOMO = -0.905985299568175  LUMO = 0.190187307854842
   mo_energy = [-20.22426724  -0.9059853    0.19018731   0.52100987   0.53576866
   0.53729744   1.44443872   1.48580426   2.18367561   3.97792775
   4.0524653   20.94963383]
alpha-B1g nocc = 0
   mo_energy = [0.53729744 1.48580426 4.0524653 ]
alpha-B2g nocc = 0
   mo_energy = [0.52967806 1.45473046 3.9958101 ]
alpha-B3g nocc = 0
   mo_energy = [0.52967806 1.45473046 3.9958101 ]
alpha-B1u nocc = 1  HOMO = -0.230042779887439  LUMO = 0.161336200673806
   mo_energy = [-0.23004278  0.1613362   0.46334165  1.68827451 25.96547692]
alpha-B2u nocc = 1  HOMO = -0.136763196030069  LUMO = 0.163565747950216
   mo_energy = [-0.1367632   0.16356575  0.48317243  1.74970412 26.00816502]
alpha-B3u nocc = 1  HOMO = -0.136763196030073  LUMO = 0.163565747950215
   mo_energy = [-0.1367632   0.16356575  0.48317243  1.74970412 26.00816502]
beta-Ag nocc = 2  HOMO = -0.741525478927097  LUMO = 0.190043097643072
   mo_energy = [-20.1881139   -0.74152548   0.1900431    0.5315963    0.53492252
   0.54162332   1.48876918   1.50264065   2.23131089   4.07160504
   4.09286365  20.98446105]
beta-B1g nocc = 0
   mo_energy = [0.53492252 1.48876918 4.07160504]
beta-B2g nocc = 0
   mo_energy = [0.53267419 1.49852504 4.08695157]
beta-B3g nocc = 0
   mo_energy = [0.53267419 1.49852504 4.08695157]
beta-B1u nocc = 0
   mo_energy = [ 0.16057791  0.38108955  0.62046933  1.86360586 26.03993493]
beta-B2u nocc = 1  HOMO = -0.087600152803938  LUMO = 0.163948017214996
   mo_energy = [-0.08760015  0.16394802  0.49049374  1.77611941 26.02317626]
beta-B3u nocc = 1  HOMO = -0.0876001528039334  LUMO = 0.163948017214996
   mo_energy = [-0.08760015  0.16394802  0.49049374  1.77611941 26.02317626]
multiplicity <S^2> = 0.76048484  2S+1 = 2.0104575
E1 = -106.80235386328879  Ecoul = 32.03269855510474
cycle= 5 E= -74.769655308184  delta_E= -0.000254  |g|= 0.00599  |ddm|= 0.0166
    CPU time for cycle= 5      0.03 sec, wall time      0.01 sec
diis-norm(errvec)=0.00846897
diis-c [-2.72629212e-05 -1.00894485e-02 -2.11820925e-03  2.39435296e-01
 -1.40903183e+00  2.18180420e+00]
alpha HOMO (B3u) = -0.140799894480346  LUMO (B1u) = 0.16128390024102
alpha irrep_nelec = [2, 0, 0, 0, 1, 1, 1]
beta  irrep_nelec = [2, 0, 0, 0, 0, 1, 1]
alpha-Ag nocc = 2  HOMO = -0.910138602442834  LUMO = 0.190351620391835
   mo_energy = [-20.22566481  -0.9101386    0.19035162   0.52135216   0.53635267
   0.53788176   1.44485827   1.4861197    2.18240298   3.97646766
   4.05047453  20.94831137]
alpha-B1g nocc = 0
   mo_energy = [0.53788176 1.4861197  4.05047453]
alpha-B2g nocc = 0
   mo_energy = [0.53012101 1.45512787 3.9942234 ]
alpha-B3g nocc = 0
   mo_energy = [0.53012101 1.45512787 3.9942234 ]
alpha-B1u nocc = 1  HOMO = -0.234761670466975  LUMO = 0.16128390024102
   mo_energy = [-0.23476167  0.1612839   0.46279606  1.68608039 25.96474026]
alpha-B2u nocc = 1  HOMO = -0.140799894480349  LUMO = 0.163580043586093
   mo_energy = [-0.14079989  0.16358004  0.48289937  1.74789054 26.00686557]
alpha-B3u nocc = 1  HOMO = -0.140799894480346  LUMO = 0.163580043586094
   mo_energy = [-0.14079989  0.16358004  0.48289937  1.74789054 26.00686557]
beta-Ag nocc = 2  HOMO = -0.737531528831319  LUMO = 0.189807023539549
   mo_energy = [-20.18635411  -0.73753153   0.18980702   0.53112576   0.53427824
   0.5411486    1.48841652   1.50223207   2.23286908   4.07382086
   4.09459298  20.98617464]
beta-B1g nocc = 0
   mo_energy = [0.53427824 1.48841652 4.07382086]
beta-B2g nocc = 0
   mo_energy = [0.53211368 1.49812579 4.08881169]
beta-B3g nocc = 0
   mo_energy = [0.53211368 1.49812579 4.08881169]
beta-B1u nocc = 0
   mo_energy = [ 0.1604968   0.3807087   0.62149029  1.86487806 26.04129849]
beta-B2u nocc = 1  HOMO = -0.0826883941482735  LUMO = 0.164071163425208
   mo_energy = [-0.08268839  0.16407116  0.49170712  1.77919535 26.02471127]
beta-B3u nocc = 1  HOMO = -0.08268839414827  LUMO = 0.164071163425209
   mo_energy = [-0.08268839  0.16407116  0.49170712  1.77919535 26.02471127]
multiplicity <S^2> = 0.765828  2S+1 = 2.0157659
E1 = -106.78621271597666  Ecoul = 32.01641625236283
cycle= 6 E= -74.7697964636138  delta_E= -0.000141  |g|= 0.00278  |ddm|= 0.0148
    CPU time for cycle= 6      0.03 sec, wall time      0.01 sec
diis-norm(errvec)=0.00393607
diis-c [-6.62694424e-06  1.20747739e-02  1.74413993e-03 -1.28101588e-01
  7.97033061e-01 -1.61531636e+00  1.93256598e+00]
alpha HOMO (B2u) = -0.144649383330721  LUMO (B1u) = 0.161257459555694
alpha irrep_nelec = [2, 0, 0, 0, 1, 1, 1]
beta  irrep_nelec = [2, 0, 0, 0, 0, 1, 1]
alpha-Ag nocc = 2  HOMO = -0.913433330057414  LUMO = 0.190381709741806
   mo_energy = [-20.22823523  -0.91343333   0.19038171   0.52099686   0.53634335
   0.53797829   1.44403644   1.48528958   2.18051655   3.97439571
   4.04772508  20.94580064]
alpha-B1g nocc = 0
   mo_energy = [0.53797829 1.48528958 4.04772508]
alpha-B2g nocc = 0
   mo_energy = [0.53006523 1.45431336 3.99200388]
alpha-B3g nocc = 0
   mo_energy = [0.53006523 1.45431336 3.99200388]
alpha-B1u nocc = 1  HOMO = -0.236579341062468  LUMO = 0.161257459555694
   mo_energy = [-0.23657934  0.16125746  0.46244373  1.68460262 25.9626412 ]
alpha-B2u nocc = 1  HOMO = -0.144649383330721  LUMO = 0.16355260802248
   mo_energy = [-0.14464938  0.16355261  0.48222793  1.745389   26.00421844]
alpha-B3u nocc = 1  HOMO = -0.144649383330722  LUMO = 0.163552608022479
   mo_energy = [-0.14464938  0.16355261  0.48222793  1.745389   26.00421844]
beta-Ag nocc = 2  HOMO = -0.737110996018327  LUMO = 0.189579148432738
   mo_energy = [-20.18763124  -0.737111     0.18957915   0.53075754   0.533635
   0.54033378   1.48747302   1.50122533   2.2321214    4.07340655
   4.09352748  20.98488293]
beta-B1g nocc = 0
   mo_energy = [0.533635   1.48747302 4.07340655]
beta-B2g nocc = 0
   mo_energy = [0.53162994 1.49714349 4.08792778]
beta-B3g nocc = 0
   mo_energy = [0.53162994 1.49714349 4.08792778]
beta-B1u nocc = 0
   mo_energy = [ 0.16044696  0.38000168  0.62064153  1.86381051 26.03963653]
beta-B2u nocc = 1  HOMO = -0.0809836985787317  LUMO = 0.164073034982167
   mo_energy = [-0.0809837   0.16407303  0.49172175  1.77925746 26.02352927]
beta-B3u nocc = 1  HOMO = -0.0809836985787305  LUMO = 0.164073034982167
   mo_energy = [-0.0809837   0.16407303  0.49172175  1.77925746 26.02352927]
multiplicity <S^2> = 0.76950908  2S+1 = 2.0194148
E1 = -106.78658006852925  Ecoul = 32.01675225102468
cycle= 7 E= -74.7698278175046  delta_E= -3.14e-05  |g|= 0.00105  |ddm|= 0.00665
    CPU time for cycle= 7      0.03 sec, wall time      0.01 sec
diis-norm(errvec)=0.00148666
diis-c [-8.12725009e-08 -2.19718291e-03  1.88834902e-03 -1.27402710e-02
  3.40784966e-02  1.07080240e-01 -9.60811904e-01  1.83270227e+00]
alpha HOMO (B2u) = -0.146636963100775  LUMO (B1u) = 0.161257992267619
alpha irrep_nelec = [2, 0, 0, 0, 1, 1, 1]
beta  irrep_nelec = [2, 0, 0, 0, 0, 1, 1]
alpha-Ag nocc = 2  HOMO = -0.914737982336217  LUMO = 0.190418930385558
   mo_energy = [-20.22898949  -0.91473798   0.19041893   0.52086629   0.53647371
   0.53809838   1.44379911   1.48509727   2.17992708   3.97376384
   4.04667652  20.94507613]
alpha-B1g nocc = 0
   mo_energy = [0.53809838 1.48509727 4.04667652]
alpha-B2g nocc = 0
   mo_energy = [0.5300875  1.45409069 3.99127978]
alpha-B3g nocc = 0
   mo_energy = [0.5300875  1.45409069 3.99127978]
alpha-B1u nocc = 1  HOMO = -0.236834954310962  LUMO = 0.161257992267619
   mo_energy = [-0.23683495  0.16125799  0.46243267  1.68436135 25.96215991]
alpha-B2u nocc = 1  HOMO = -0.146636963100775  LUMO = 0.163542500691229
   mo_energy = [-0.14663696  0.1635425   0.48195549  1.7443031  26.00337193]
alpha-B3u nocc = 1  HOMO = -0.14663696310078  LUMO = 0.163542500691227
   mo_energy = [-0.14663696  0.1635425   0.48195549  1.7443031  26.00337193]
beta-Ag nocc = 2  HOMO = -0.736545494539724  LUMO = 0.189476641348283
   mo_energy = [-20.18774124  -0.73654549   0.18947664   0.53064005   0.53332839
   0.54004678   1.48717568   1.50094709   2.23212918   4.0736705
   4.09337119  20.98477229]
beta-B1g nocc = 0
   mo_energy = [0.53332839 1.48717568 4.0736705 ]
beta-B2g nocc = 0
   mo_energy = [0.53143416 1.49685982 4.087885  ]
beta-B3g nocc = 0
   mo_energy = [0.53143416 1.49685982 4.087885  ]
beta-B1u nocc = 0
   mo_energy = [ 0.16042991  0.37979665  0.62050019  1.86360167 26.03924563]
beta-B2u nocc = 1  HOMO = -0.079969271327945  LUMO = 0.164095215318991
   mo_energy = [-0.07996927  0.16409522  0.49192838  1.77969836 26.02352374]
beta-B3u nocc = 1  HOMO = -0.0799692713279464  LUMO = 0.16409521531899
   mo_energy = [-0.07996927  0.16409522  0.49192838  1.77969836 26.02352374]
multiplicity <S^2> = 0.77193059  2S+1 = 2.0218117
E1 = -106.78215063834648  Ecoul = 32.01231778625497
cycle= 8 E= -74.7698328520915  delta_E= -5.03e-06  |g|= 7.27e-05  |ddm|= 0.00391
    CPU time for cycle= 8      0.03 sec, wall time      0.01 sec
diis-norm(errvec)=0.000102832
diis-c [-1.56159275e-09  1.75535927e-05 -8.40866416e-04  9.89030407e-03
 -3.34045367e-02  8.92212621e-03  2.44601206e-01 -5.04166860e-01
  1.27498107e+00]
alpha HOMO (B2u) = -0.146539242804902  LUMO (B1u) = 0.161258750747717
alpha irrep_nelec = [2, 0, 0, 0, 1, 1, 1]
beta  irrep_nelec = [2, 0, 0, 0, 0, 1, 1]
alpha-Ag nocc = 2  HOMO = -0.914647727939009  LUMO = 0.190418181147255
   mo_energy = [-20.22889538  -0.91464773   0.19041818   0.52088038   0.53647958
   0.53809889   1.44382815   1.48513422   2.17998862   3.97383393
   4.04675614  20.9451672 ]
alpha-B1g nocc = 0
   mo_energy = [0.53809889 1.48513422 4.04675614]
alpha-B2g nocc = 0
   mo_energy = [0.53009204 1.45412176 3.99135231]
alpha-B3g nocc = 0
   mo_energy = [0.53009204 1.45412176 3.99135231]
alpha-B1u nocc = 1  HOMO = -0.23678420239557  LUMO = 0.161258750747717
   mo_energy = [-0.2367842   0.16125875  0.46244855  1.68442461 25.96225071]
alpha-B2u nocc = 1  HOMO = -0.146539242804902  LUMO = 0.163542107361888
   mo_energy = [-0.14653924  0.16354211  0.48196557  1.74436605 26.00346726]
alpha-B3u nocc = 1  HOMO = -0.146539242804905  LUMO = 0.163542107361889
   mo_energy = [-0.14653924  0.16354211  0.48196557  1.74436605 26.00346726]
beta-Ag nocc = 2  HOMO = -0.736497478010305  LUMO = 0.18948128442916
   mo_energy = [-20.18765983  -0.73649748   0.18948128   0.53064978   0.53334394
   0.54006864   1.48720324   1.50098341   2.23217429   4.07371249
   4.09342676  20.9848506 ]
beta-B1g nocc = 0
   mo_energy = [0.53334394 1.48720324 4.07371249]
beta-B2g nocc = 0
   mo_energy = [0.53144618 1.4968941  4.08793717]
beta-B3g nocc = 0
   mo_energy = [0.53144618 1.4968941  4.08793717]
beta-B1u nocc = 0
   mo_energy = [ 0.16043082  0.37982296  0.62054233  1.86365306 26.0393259 ]
beta-B2u nocc = 1  HOMO = -0.0799552672407546  LUMO = 0.164092233620532
   mo_energy = [-0.07995527  0.16409223  0.49191809  1.77972136 26.02360047]
beta-B3u nocc = 1  HOMO = -0.079955267240757  LUMO = 0.164092233620533
   mo_energy = [-0.07995527  0.16409223  0.49191809  1.77972136 26.02360047]
multiplicity <S^2> = 0.7718449  2S+1 = 2.0217269
E1 = -106.78234945529962  Ecoul = 32.01251659042133
cycle= 9 E= -74.7698328648783  delta_E= -1.28e-08  |g|= 1.63e-05  |ddm|= 0.00011
    CPU time for cycle= 9      0.03 sec, wall time      0.01 sec
diis-norm(errvec)=2.30872e-05
diis-c [-6.15433439e-11  1.29731529e+00  1.92814522e-04 -2.20362267e-03
  8.45574871e-03 -4.57293830e-03 -4.61225584e-02  9.99900605e-02
 -3.53054790e-01]
alpha HOMO (B2u) = -0.146514056251396  LUMO (B1u) = 0.16125902257451
alpha irrep_nelec = [2, 0, 0, 0, 1, 1, 1]
beta  irrep_nelec = [2, 0, 0, 0, 0, 1, 1]
alpha-Ag nocc = 2  HOMO = -0.914621501260838  LUMO = 0.190418396650957
   mo_energy = [-20.22887092  -0.9146215    0.1904184    0.52088412   0.5364828
   0.53810049   1.44383918   1.48514622   2.18000528   3.97385394
   4.04677866  20.94519056]
alpha-B1g nocc = 0
   mo_energy = [0.53810049 1.48514622 4.04677866]
alpha-B2g nocc = 0
   mo_energy = [0.53009429 1.45413301 3.99137287]
alpha-B3g nocc = 0
   mo_energy = [0.53009429 1.45413301 3.99137287]
alpha-B1u nocc = 1  HOMO = -0.236755800551566  LUMO = 0.16125902257451
   mo_energy = [-0.2367558   0.16125902  0.46245154  1.68444098 25.96227416]
alpha-B2u nocc = 1  HOMO = -0.146514056251396  LUMO = 0.163542288369456
   mo_energy = [-0.14651406  0.16354229  0.48197006  1.74438366 26.00349215]
alpha-B3u nocc = 1  HOMO = -0.146514056251397  LUMO = 0.163542288369455
   mo_energy = [-0.14651406  0.16354229  0.48197006  1.74438366 26.00349215]
beta-Ag nocc = 2  HOMO = -0.736488601991  LUMO = 0.189483788717354
   mo_energy = [-20.18763896  -0.7364886    0.18948379   0.53065416   0.53334946
   0.54007652   1.4872122    1.50099362   2.23218727   4.07372553
   4.09344107  20.9848707 ]
beta-B1g nocc = 0
   mo_energy = [0.53334946 1.4872122  4.07372553]
beta-B2g nocc = 0
   mo_energy = [0.53145099 1.49690391 4.0879511 ]
beta-B3g nocc = 0
   mo_energy = [0.53145099 1.49690391 4.0879511 ]
beta-B1u nocc = 0
   mo_energy = [ 0.16043154  0.37983005  0.62055307  1.86366659 26.0393462 ]
beta-B2u nocc = 1  HOMO = -0.0799587377274314  LUMO = 0.164092682426492
   mo_energy = [-0.07995874  0.16409268  0.49192166  1.77973021 26.02362054]
beta-B3u nocc = 1  HOMO = -0.0799587377274343  LUMO = 0.164092682426491
   mo_energy = [-0.07995874  0.16409268  0.49192166  1.77973021 26.02362054]
multiplicity <S^2> = 0.77182482  2S+1 = 2.021707
E1 = -106.78234292313918  Ecoul = 32.01251005759629
cycle= 10 E= -74.7698328655429  delta_E= -6.65e-10  |g|= 2.14e-06  |ddm|= 2.32e-05
    CPU time for cycle= 10      0.03 sec, wall time      0.01 sec
diis-norm(errvec)=3.02988e-06
diis-c [-1.87665376e-12 -3.24226344e-01  1.30145407e+00 -3.54222914e-05
 -1.50688262e-04  6.95792573e-04 -2.10236943e-03  3.61758885e-03
  2.07473697e-02]
alpha HOMO (B3u) = -0.146510797450708  LUMO (B1u) = 0.161259113178145
alpha irrep_nelec = [2, 0, 0, 0, 1, 1, 1]
beta  irrep_nelec = [2, 0, 0, 0, 0, 1, 1]
alpha-Ag nocc = 2  HOMO = -0.914618975748427  LUMO = 0.190418413490335
   mo_energy = [-20.22886934  -0.91461898   0.19041841   0.52088451   0.53648298
   0.53810054   1.44384007   1.48514726   2.18000686   3.97385568
   4.04678097  20.94519215]
alpha-B1g nocc = 0
   mo_energy = [0.53810054 1.48514726 4.04678097]
alpha-B2g nocc = 0
   mo_energy = [0.53009447 1.45413393 3.99137475]
alpha-B3g nocc = 0
   mo_energy = [0.53009447 1.45413393 3.99137475]
alpha-B1u nocc = 1  HOMO = -0.236754349059379  LUMO = 0.161259113178145
   mo_energy = [-0.23675435  0.16125911  0.46245243  1.68444274 25.96227557]
alpha-B2u nocc = 1  HOMO = -0.146510797450709  LUMO = 0.163542325459461
   mo_energy = [-0.1465108   0.16354233  0.48197082  1.74438582 26.00349397]
alpha-B3u nocc = 1  HOMO = -0.146510797450708  LUMO = 0.163542325459461
   mo_energy = [-0.1465108   0.16354233  0.48197082  1.74438582 26.00349397]
beta-Ag nocc = 2  HOMO = -0.736488702351126  LUMO = 0.18948421399363
   mo_energy = [-20.18763817  -0.7364887    0.18948421   0.53065471   0.53335029
   0.54007736   1.487213     1.50099448   2.23218802   4.07372578
   4.0934417   20.98487159]
beta-B1g nocc = 0
   mo_energy = [0.53335029 1.487213   4.07372578]
beta-B2g nocc = 0
   mo_energy = [0.53145165 1.49690475 4.08795163]
beta-B3g nocc = 0
   mo_energy = [0.53145165 1.49690475 4.08795163]
beta-B1u nocc = 0
   mo_energy = [ 0.16043165  0.37983067  0.62055367  1.86366733 26.03934709]
beta-B2u nocc = 1  HOMO = -0.0799604753025579  LUMO = 0.164092639885185
   mo_energy = [-0.07996048  0.16409264  0.49192153  1.77973006 26.02362116]
beta-B3u nocc = 1  HOMO = -0.0799604753025593  LUMO = 0.164092639885185
   mo_energy = [-0.07996048  0.16409264  0.49192153  1.77973006 26.02362116]
multiplicity <S^2> = 0.77181959  2S+1 = 2.0217018
E1 = -106.78235317499164  Ecoul = 32.01252030941345
cycle= 11 E= -74.7698328655782  delta_E= -3.53e-11  |g|= 3.22e-07  |ddm|= 7.23e-06
    CPU time for cycle= 11      0.03 sec, wall time      0.01 sec
diis-norm(errvec)=4.55599e-07
diis-c [-4.77090516e-14  6.96803204e-02 -3.68860611e-01  1.30464348e+00
  6.52679129e-05 -1.65244433e-04  3.21569690e-04 -5.19450173e-04
 -5.16533645e-03]
alpha HOMO (B3u) = -0.146510419774096  LUMO (B1u) = 0.161259124808229
alpha irrep_nelec = [2, 0, 0, 0, 1, 1, 1]
beta  irrep_nelec = [2, 0, 0, 0, 0, 1, 1]
alpha-Ag nocc = 2  HOMO = -0.914618671716043  LUMO = 0.190418416737823
   mo_energy = [-20.2288692   -0.91461867   0.19041842   0.52088454   0.53648301
   0.53810057   1.44384018   1.48514737   2.18000701   3.97385585
   4.04678118  20.94519228]
alpha-B1g nocc = 0
   mo_energy = [0.53810057 1.48514737 4.04678118]
alpha-B2g nocc = 0
   mo_energy = [0.53009449 1.45413405 3.99137493]
alpha-B3g nocc = 0
   mo_energy = [0.53009449 1.45413405 3.99137493]
alpha-B1u nocc = 1  HOMO = -0.236754013068498  LUMO = 0.161259124808229
   mo_energy = [-0.23675401  0.16125912  0.4624525   1.68444289 25.96227569]
alpha-B2u nocc = 1  HOMO = -0.146510419774099  LUMO = 0.163542330102772
   mo_energy = [-0.14651042  0.16354233  0.48197091  1.74438603 26.00349413]
alpha-B3u nocc = 1  HOMO = -0.146510419774096  LUMO = 0.16354233010277
   mo_energy = [-0.14651042  0.16354233  0.48197091  1.74438603 26.00349413]
beta-Ag nocc = 2  HOMO = -0.736488827199927  LUMO = 0.189484285802787
   mo_energy = [-20.18763814  -0.73648883   0.18948429   0.5306548    0.53335039
   0.54007743   1.48721307   1.50099457   2.23218805   4.07372576
   4.09344171  20.98487162]
beta-B1g nocc = 0
   mo_energy = [0.53335039 1.48721307 4.07372576]
beta-B2g nocc = 0
   mo_energy = [0.53145174 1.49690483 4.08795162]
beta-B3g nocc = 0
   mo_energy = [0.53145174 1.49690483 4.08795162]
beta-B1u nocc = 0
   mo_energy = [ 0.16043167  0.37983075  0.62055368  1.86366737 26.03934714]
beta-B2u nocc = 1  HOMO = -0.0799607460611479  LUMO = 0.164092643740445
   mo_energy = [-0.07996075  0.16409264  0.49192154  1.77973    26.02362117]
beta-B3u nocc = 1  HOMO = -0.0799607460611491  LUMO = 0.164092643740443
   mo_energy = [-0.07996075  0.16409264  0.49192154  1.77973    26.02362117]
multiplicity <S^2> = 0.77181896  2S+1 = 2.0217012
E1 = -106.78235499910257  Ecoul = 32.01252213352364
cycle= 12 E= -74.7698328655789  delta_E= -7.39e-13  |g|= 5.87e-08  |ddm|= 1.27e-06
    CPU time for cycle= 12      0.03 sec, wall time      0.01 sec
diis-norm(errvec)=8.2968e-08
diis-c [-1.07263105e-15 -7.54164825e-03  4.71896840e-02 -2.94958948e-01
  1.25472823e+00 -1.05049670e-07 -5.28684675e-06  2.63239193e-05
  5.61747783e-04]
alpha HOMO (B2u) = -0.146510344779202  LUMO (B1u) = 0.161259127160445
alpha irrep_nelec = [2, 0, 0, 0, 1, 1, 1]
beta  irrep_nelec = [2, 0, 0, 0, 0, 1, 1]
alpha-Ag nocc = 2  HOMO = -0.914618597232989  LUMO = 0.190418419474456
   mo_energy = [-20.22886913  -0.9146186    0.19041842   0.52088456   0.53648303
   0.53810058   1.44384022   1.48514741   2.18000707   3.97385592
   4.04678125  20.94519235]
alpha-B1g nocc = 0
   mo_energy = [0.53810058 1.48514741 4.04678125]
alpha-B2g nocc = 0
   mo_energy = [0.5300945  1.45413408 3.99137499]
alpha-B3g nocc = 0
   mo_energy = [0.5300945  1.45413408 3.99137499]
alpha-B1u nocc = 1  HOMO = -0.236753944275381  LUMO = 0.161259127160445
   mo_energy = [-0.23675394  0.16125913  0.46245252  1.68444294 25.96227575]
alpha-B2u nocc = 1  HOMO = -0.146510344779202  LUMO = 0.163542331210042
   mo_energy = [-0.14651034  0.16354233  0.48197093  1.74438609 26.00349419]
alpha-B3u nocc = 1  HOMO = -0.146510344779202  LUMO = 0.163542331210043
   mo_energy = [-0.14651034  0.16354233  0.48197093  1.74438609 26.00349419]
beta-Ag nocc = 2  HOMO = -0.736488809279023  LUMO = 0.1894842976552
   mo_energy = [-20.18763809  -0.73648881   0.1894843    0.53065482   0.53335041
   0.54007745   1.4872131    1.5009946    2.23218809   4.0737258
   4.09344175  20.98487167]
beta-B1g nocc = 0
   mo_energy = [0.53335041 1.4872131  4.0737258 ]
beta-B2g nocc = 0
   mo_energy = [0.53145176 1.49690487 4.08795167]
beta-B3g nocc = 0
   mo_energy = [0.53145176 1.49690487 4.08795167]
beta-B1u nocc = 0
   mo_energy = [ 0.16043168  0.37983078  0.62055372  1.86366741 26.03934719]
beta-B2u nocc = 1  HOMO = -0.07996074328484  LUMO = 0.164092645433421
   mo_energy = [-0.07996074  0.16409265  0.49192155  1.77973003 26.02362123]
beta-B3u nocc = 1  HOMO = -0.0799607432848429  LUMO = 0.164092645433421
   mo_energy = [-0.07996074  0.16409265  0.49192155  1.77973003 26.02362123]
multiplicity <S^2> = 0.77181889  2S+1 = 2.0217012
E1 = -106.78235503713412  Ecoul = 32.01252217155527
cycle= 13 E= -74.7698328655788  delta_E= 8.53e-14  |g|= 7.59e-09  |ddm|= 1.88e-07
    CPU time for cycle= 13      0.03 sec, wall time      0.01 sec
diis-norm(errvec)=1.07371e-08
Linear dependence found in DIIS error vectors.
diis-c [-2.36920480e-16 -3.36648949e-03  2.10219025e-02 -1.27160549e-01
  4.76532184e-01  6.32721025e-01 -3.03185559e-06  1.27400768e-05
  2.42218751e-04]
alpha HOMO (B2u) = -0.146510341032443  LUMO (B1u) = 0.161259127281394
alpha irrep_nelec = [2, 0, 0, 0, 1, 1, 1]
beta  irrep_nelec = [2, 0, 0, 0, 0, 1, 1]
alpha-Ag nocc = 2  HOMO = -0.914618592870062  LUMO = 0.190418419716014
   mo_energy = [-20.22886913  -0.91461859   0.19041842   0.52088456   0.53648303
   0.53810058   1.44384022   1.48514742   2.18000707   3.97385592
   4.04678126  20.94519236]
alpha-B1g nocc = 0
   mo_energy = [0.53810058 1.48514742 4.04678126]
alpha-B2g nocc = 0
   mo_energy = [0.53009451 1.45413409 3.991375  ]
alpha-B3g nocc = 0
   mo_energy = [0.53009451 1.45413409 3.991375  ]
alpha-B1u nocc = 1  HOMO = -0.236753940573909  LUMO = 0.161259127281394
   mo_energy = [-0.23675394  0.16125913  0.46245252  1.68444295 25.96227575]
alpha-B2u nocc = 1  HOMO = -0.146510341032443  LUMO = 0.163542331270646
   mo_energy = [-0.14651034  0.16354233  0.48197093  1.7443861  26.0034942 ]
alpha-B3u nocc = 1  HOMO = -0.146510341032445  LUMO = 0.163542331270647
   mo_energy = [-0.14651034  0.16354233  0.48197093  1.7443861  26.0034942 ]
beta-Ag nocc = 2  HOMO = -0.736488807039241  LUMO = 0.189484298330199
   mo_energy = [-20.18763809  -0.73648881   0.1894843    0.53065482   0.53335042
   0.54007745   1.4872131    1.50099461   2.23218809   4.07372581
   4.09344176  20.98487168]
beta-B1g nocc = 0
   mo_energy = [0.53335042 1.4872131  4.07372581]
beta-B2g nocc = 0
   mo_energy = [0.53145176 1.49690487 4.08795167]
beta-B3g nocc = 0
   mo_energy = [0.53145176 1.49690487 4.08795167]
beta-B1u nocc = 0
   mo_energy = [ 0.16043168  0.37983078  0.62055372  1.86366741 26.0393472 ]
beta-B2u nocc = 1  HOMO = -0.079960741700081  LUMO = 0.164092645539593
   mo_energy = [-0.07996074  0.16409265  0.49192155  1.77973004 26.02362123]
beta-B3u nocc = 1  HOMO = -0.079960741700082  LUMO = 0.164092645539593
   mo_energy = [-0.07996074  0.16409265  0.49192155  1.77973004 26.02362123]
multiplicity <S^2> = 0.77181889  2S+1 = 2.0217012
E1 = -106.78235504023658  Ecoul = 32.01252217465764
cycle= 14 E= -74.7698328655789  delta_E= -8.53e-14  |g|= 4.02e-09  |ddm|= 1.13e-08
    CPU time for cycle= 14      0.03 sec, wall time      0.01 sec
diis-norm(errvec)=5.68998e-09
Linear dependence found in DIIS error vectors.
diis-c [-1.38845707e-16 -1.90734443e-03  1.23456300e-02 -7.72791857e-02
  2.92228659e-01  3.85378354e-01  3.89084262e-01  3.31774844e-06
  1.46308684e-04]
alpha HOMO (B2u) = -0.146510340372086  LUMO (B1u) = 0.161259127306228
alpha irrep_nelec = [2, 0, 0, 0, 1, 1, 1]
beta  irrep_nelec = [2, 0, 0, 0, 0, 1, 1]
alpha-Ag nocc = 2  HOMO = -0.914618591942072  LUMO = 0.190418419760855
   mo_energy = [-20.22886913  -0.91461859   0.19041842   0.52088456   0.53648303
   0.53810058   1.44384022   1.48514742   2.18000707   3.97385592
   4.04678126  20.94519236]
alpha-B1g nocc = 0
   mo_energy = [0.53810058 1.48514742 4.04678126]
alpha-B2g nocc = 0
   mo_energy = [0.53009451 1.45413409 3.991375  ]
alpha-B3g nocc = 0
   mo_energy = [0.53009451 1.45413409 3.991375  ]
alpha-B1u nocc = 1  HOMO = -0.236753939868309  LUMO = 0.161259127306228
   mo_energy = [-0.23675394  0.16125913  0.46245252  1.68444295 25.96227575]
alpha-B2u nocc = 1  HOMO = -0.146510340372086  LUMO = 0.163542331279472
   mo_energy = [-0.14651034  0.16354233  0.48197093  1.7443861  26.0034942 ]
alpha-B3u nocc = 1  HOMO = -0.146510340372088  LUMO = 0.163542331279472
   mo_energy = [-0.14651034  0.16354233  0.48197093  1.7443861  26.0034942 ]
beta-Ag nocc = 2  HOMO = -0.736488807002873  LUMO = 0.189484298456706
   mo_energy = [-20.18763809  -0.73648881   0.1894843    0.53065482   0.53335042
   0.54007745   1.4872131    1.50099461   2.23218809   4.07372581
   4.09344176  20.98487168]
beta-B1g nocc = 0
   mo_energy = [0.53335042 1.4872131  4.07372581]
beta-B2g nocc = 0
   mo_energy = [0.53145176 1.49690487 4.08795167]
beta-B3g nocc = 0
   mo_energy = [0.53145176 1.49690487 4.08795167]
beta-B1u nocc = 0
   mo_energy = [ 0.16043168  0.37983078  0.62055372  1.86366741 26.0393472 ]
beta-B2u nocc = 1  HOMO = -0.0799607417233845  LUMO = 0.164092645548174
   mo_energy = [-0.07996074  0.16409265  0.49192155  1.77973004 26.02362123]
beta-B3u nocc = 1  HOMO = -0.079960741723384  LUMO = 0.164092645548174
   mo_energy = [-0.07996074  0.16409265  0.49192155  1.77973004 26.02362123]
multiplicity <S^2> = 0.77181889  2S+1 = 2.0217012
E1 = -106.78235504265025  Ecoul = 32.01252217707135
cycle= 15 E= -74.7698328655789  delta_E= 2.84e-14  |g|= 3.42e-09  |ddm|= 2.4e-09
    CPU time for cycle= 15      0.03 sec, wall time      0.01 sec
diis-norm(errvec)=4.82968e-09
Linear dependence found in DIIS error vectors.
diis-c [-1.20040051e-16 -1.35913396e-03  8.37432325e-03 -5.50492538e-02
  2.13288515e-01  2.76331632e-01  2.78941685e-01  2.79371170e-01
  1.01063519e-04]
alpha HOMO (B3u) = -0.146510341934595  LUMO (B1u) = 0.16125912732921
alpha irrep_nelec = [2, 0, 0, 0, 1, 1, 1]
beta  irrep_nelec = [2, 0, 0, 0, 0, 1, 1]
alpha-Ag nocc = 2  HOMO = -0.914618592623031  LUMO = 0.19041841985091
   mo_energy = [-20.22886913  -0.91461859   0.19041842   0.52088456   0.53648303
   0.53810058   1.44384022   1.48514742   2.18000707   3.97385592
   4.04678126  20.94519236]
alpha-B1g nocc = 0
   mo_energy = [0.53810058 1.48514742 4.04678126]
alpha-B2g nocc = 0
   mo_energy = [0.53009451 1.45413409 3.991375  ]
alpha-B3g nocc = 0
   mo_energy = [0.53009451 1.45413409 3.991375  ]
alpha-B1u nocc = 1  HOMO = -0.236753939394009  LUMO = 0.16125912732921
   mo_energy = [-0.23675394  0.16125913  0.46245252  1.68444295 25.96227575]
alpha-B2u nocc = 1  HOMO = -0.146510341934599  LUMO = 0.163542331278286
   mo_energy = [-0.14651034  0.16354233  0.48197093  1.7443861  26.0034942 ]
alpha-B3u nocc = 1  HOMO = -0.146510341934595  LUMO = 0.163542331278287
   mo_energy = [-0.14651034  0.16354233  0.48197093  1.7443861  26.0034942 ]
beta-Ag nocc = 2  HOMO = -0.736488805471877  LUMO = 0.189484298480347
   mo_energy = [-20.18763808  -0.73648881   0.1894843    0.53065482   0.53335042
   0.54007745   1.4872131    1.50099461   2.23218809   4.07372581
   4.09344176  20.98487168]
beta-B1g nocc = 0
   mo_energy = [0.53335042 1.4872131  4.07372581]
beta-B2g nocc = 0
   mo_energy = [0.53145176 1.49690487 4.08795167]
beta-B3g nocc = 0
   mo_energy = [0.53145176 1.49690487 4.08795167]
beta-B1u nocc = 0
   mo_energy = [ 0.16043168  0.37983078  0.62055372  1.86366741 26.0393472 ]
beta-B2u nocc = 1  HOMO = -0.0799607400088978  LUMO = 0.164092645589896
   mo_energy = [-0.07996074  0.16409265  0.49192155  1.77973004 26.02362123]
beta-B3u nocc = 1  HOMO = -0.0799607400088983  LUMO = 0.164092645589896
   mo_energy = [-0.07996074  0.16409265  0.49192155  1.77973004 26.02362123]
multiplicity <S^2> = 0.77181889  2S+1 = 2.0217012
E1 = -106.7823550386761  Ecoul = 32.01252217309718
cycle= 16 E= -74.7698328655789  delta_E= -1.42e-14  |g|= 2.91e-09  |ddm|= 4.57e-09
    CPU time for cycle= 16      0.03 sec, wall time      0.01 sec
diis-norm(errvec)=4.11678e-09
Linear dependence found in DIIS error vectors.
diis-c [-1.21768728e-17 -7.64677722e-04  5.91815626e-03 -4.13062509e-02
  1.69688650e-01  2.14921318e-01  2.16800133e-01  2.17142316e-01
  2.17600356e-01]
alpha HOMO (B3u) = -0.146510338134397  LUMO (B1u) = 0.161259127356677
alpha irrep_nelec = [2, 0, 0, 0, 1, 1, 1]
beta  irrep_nelec = [2, 0, 0, 0, 0, 1, 1]
alpha-Ag nocc = 2  HOMO = -0.914618588913665  LUMO = 0.190418419869336
   mo_energy = [-20.22886912  -0.91461859   0.19041842   0.52088456   0.53648303
   0.53810058   1.44384022   1.48514742   2.18000707   3.97385593
   4.04678126  20.94519236]
alpha-B1g nocc = 0
   mo_energy = [0.53810058 1.48514742 4.04678126]
alpha-B2g nocc = 0
   mo_energy = [0.53009451 1.45413409 3.991375  ]
alpha-B3g nocc = 0
   mo_energy = [0.53009451 1.45413409 3.991375  ]
alpha-B1u nocc = 1  HOMO = -0.236753936934633  LUMO = 0.161259127356677
   mo_energy = [-0.23675394  0.16125913  0.46245252  1.68444295 25.96227576]
alpha-B2u nocc = 1  HOMO = -0.146510338134399  LUMO = 0.163542331297317
   mo_energy = [-0.14651034  0.16354233  0.48197093  1.7443861  26.0034942 ]
alpha-B3u nocc = 1  HOMO = -0.146510338134397  LUMO = 0.163542331297317
   mo_energy = [-0.14651034  0.16354233  0.48197093  1.7443861  26.0034942 ]
beta-Ag nocc = 2  HOMO = -0.736488804062049  LUMO = 0.189484298705003
   mo_energy = [-20.18763808  -0.7364888    0.1894843    0.53065482   0.53335042
   0.54007745   1.4872131    1.50099461   2.23218809   4.07372581
   4.09344176  20.98487168]
beta-B1g nocc = 0
   mo_energy = [0.53335042 1.4872131  4.07372581]
beta-B2g nocc = 0
   mo_energy = [0.53145176 1.49690487 4.08795167]
beta-B3g nocc = 0
   mo_energy = [0.53145176 1.49690487 4.08795167]
beta-B1u nocc = 0
   mo_energy = [ 0.16043168  0.37983078  0.62055372  1.86366741 26.0393472 ]
beta-B2u nocc = 1  HOMO = -0.0799607399766808  LUMO = 0.164092645591846
   mo_energy = [-0.07996074  0.16409265  0.49192155  1.77973004 26.02362123]
beta-B3u nocc = 1  HOMO = -0.0799607399766815  LUMO = 0.164092645591846
   mo_energy = [-0.07996074  0.16409265  0.49192155  1.77973004 26.02362123]
multiplicity <S^2> = 0.77181889  2S+1 = 2.0217012
E1 = -106.78235503498199  Ecoul = 32.01252216940305
cycle= 17 E= -74.7698328655789  delta_E= -1.42e-14  |g|= 2.46e-09  |ddm|= 4.41e-09
    CPU time for cycle= 17      0.03 sec, wall time      0.01 sec
diis-norm(errvec)=3.4721e-09
Linear dependence found in DIIS error vectors.
diis-c [-1.01056019e-15  1.71982598e-01  6.23315789e-04 -1.82909293e-02
  1.55205982e-01  1.72268364e-01  1.72637371e-01  1.72776517e-01
  1.72796782e-01]
alpha HOMO (B3u) = -0.146510338230744  LUMO (B1u) = 0.161259127307386
alpha irrep_nelec = [2, 0, 0, 0, 1, 1, 1]
beta  irrep_nelec = [2, 0, 0, 0, 0, 1, 1]
alpha-Ag nocc = 2  HOMO = -0.91461858896619  LUMO = 0.190418419866082
   mo_energy = [-20.22886912  -0.91461859   0.19041842   0.52088456   0.53648303
   0.53810058   1.44384022   1.48514742   2.18000707   3.97385593
   4.04678126  20.94519237]
alpha-B1g nocc = 0
   mo_energy = [0.53810058 1.48514742 4.04678126]
alpha-B2g nocc = 0
   mo_energy = [0.53009451 1.45413409 3.991375  ]
alpha-B3g nocc = 0
   mo_energy = [0.53009451 1.45413409 3.991375  ]
alpha-B1u nocc = 1  HOMO = -0.23675393766225  LUMO = 0.161259127307386
   mo_energy = [-0.23675394  0.16125913  0.46245252  1.68444295 25.96227576]
alpha-B2u nocc = 1  HOMO = -0.146510338230745  LUMO = 0.163542331294629
   mo_energy = [-0.14651034  0.16354233  0.48197093  1.7443861  26.00349421]
alpha-B3u nocc = 1  HOMO = -0.146510338230744  LUMO = 0.163542331294629
   mo_energy = [-0.14651034  0.16354233  0.48197093  1.7443861  26.00349421]
beta-Ag nocc = 2  HOMO = -0.736488801937244  LUMO = 0.189484298442079
   mo_energy = [-20.18763808  -0.7364888    0.1894843    0.53065482   0.53335042
   0.54007745   1.4872131    1.50099461   2.23218809   4.07372581
   4.09344176  20.98487168]
beta-B1g nocc = 0
   mo_energy = [0.53335042 1.4872131  4.07372581]
beta-B2g nocc = 0
   mo_energy = [0.53145176 1.49690487 4.08795168]
beta-B3g nocc = 0
   mo_energy = [0.53145176 1.49690487 4.08795168]
beta-B1u nocc = 0
   mo_energy = [ 0.16043168  0.37983078  0.62055372  1.86366741 26.03934721]
beta-B2u nocc = 1  HOMO = -0.0799607375491048  LUMO = 0.164092645608605
   mo_energy = [-0.07996074  0.16409265  0.49192155  1.77973004 26.02362124]
beta-B3u nocc = 1  HOMO = -0.0799607375491055  LUMO = 0.164092645608605
   mo_energy = [-0.07996074  0.16409265  0.49192155  1.77973004 26.02362124]
multiplicity <S^2> = 0.77181889  2S+1 = 2.0217012
E1 = -106.7823550089904  Ecoul = 32.01252214341147
cycle= 18 E= -74.7698328655789  delta_E= 1.42e-14  |g|= 5.25e-09  |ddm|= 4.95e-09
    CPU time for cycle= 18      0.03 sec, wall time      0.01 sec
diis-norm(errvec)=7.42579e-09
Linear dependence found in DIIS error vectors.
diis-c [-2.54083669e-16  1.46600196e-01  1.45748034e-01 -1.24249858e-02
  1.33247572e-01  1.46423329e-01  1.46762115e-01  1.46844662e-01
  1.46799079e-01]
alpha HOMO (B2u) = -0.146510338256516  LUMO (B1u) = 0.161259127310425
alpha irrep_nelec = [2, 0, 0, 0, 1, 1, 1]
beta  irrep_nelec = [2, 0, 0, 0, 0, 1, 1]
alpha-Ag nocc = 2  HOMO = -0.9146185892172  LUMO = 0.190418419859419
   mo_energy = [-20.22886912  -0.91461859   0.19041842   0.52088456   0.53648303
   0.53810058   1.44384022   1.48514742   2.18000707   3.97385593
   4.04678126  20.94519236]
alpha-B1g nocc = 0
   mo_energy = [0.53810058 1.48514742 4.04678126]
alpha-B2g nocc = 0
   mo_energy = [0.53009451 1.45413409 3.991375  ]
alpha-B3g nocc = 0
   mo_energy = [0.53009451 1.45413409 3.991375  ]
alpha-B1u nocc = 1  HOMO = -0.236753938071101  LUMO = 0.161259127310425
   mo_energy = [-0.23675394  0.16125913  0.46245252  1.68444295 25.96227576]
alpha-B2u nocc = 1  HOMO = -0.146510338256516  LUMO = 0.163542331297527
   mo_energy = [-0.14651034  0.16354233  0.48197093  1.7443861  26.00349421]
alpha-B3u nocc = 1  HOMO = -0.146510338256517  LUMO = 0.163542331297527
   mo_energy = [-0.14651034  0.16354233  0.48197093  1.7443861  26.00349421]
beta-Ag nocc = 2  HOMO = -0.736488802724554  LUMO = 0.189484298492216
   mo_energy = [-20.18763808  -0.7364888    0.1894843    0.53065482   0.53335042
   0.54007745   1.4872131    1.50099461   2.23218809   4.07372581
   4.09344176  20.98487168]
beta-B1g nocc = 0
   mo_energy = [0.53335042 1.4872131  4.07372581]
beta-B2g nocc = 0
   mo_energy = [0.53145176 1.49690487 4.08795167]
beta-B3g nocc = 0
   mo_energy = [0.53145176 1.49690487 4.08795167]
beta-B1u nocc = 0
   mo_energy = [ 0.16043168  0.37983078  0.62055372  1.86366741 26.0393472 ]
beta-B2u nocc = 1  HOMO = -0.0799607384071473  LUMO = 0.164092645601364
   mo_energy = [-0.07996074  0.16409265  0.49192155  1.77973004 26.02362124]
beta-B3u nocc = 1  HOMO = -0.0799607384071477  LUMO = 0.164092645601364
   mo_energy = [-0.07996074  0.16409265  0.49192155  1.77973004 26.02362124]
multiplicity <S^2> = 0.77181889  2S+1 = 2.0217012
E1 = -106.78235501680237  Ecoul = 32.012522151223436
cycle= 19 E= -74.7698328655789  delta_E= -1.42e-14  |g|= 4.05e-09  |ddm|= 1.52e-09
    CPU time for cycle= 19      0.03 sec, wall time      0.01 sec
diis-norm(errvec)=5.72485e-09
Linear dependence found in DIIS error vectors.
diis-c [-3.11228916e-17  1.25000000e-01  1.25000000e-01  1.25000000e-01
  1.25000000e-01  1.25000000e-01  1.25000000e-01  1.25000000e-01
  1.25000000e-01]
alpha HOMO (B3u) = -0.146510343539556  LUMO (B1u) = 0.161259127210927
alpha irrep_nelec = [2, 0, 0, 0, 1, 1, 1]
beta  irrep_nelec = [2, 0, 0, 0, 0, 1, 1]
alpha-Ag nocc = 2  HOMO = -0.914618594154766  LUMO = 0.190418419827738
   mo_energy = [-20.22886912  -0.91461859   0.19041842   0.52088456   0.53648303
   0.53810058   1.44384022   1.48514742   2.18000707   3.97385592
   4.04678125  20.94519236]
alpha-B1g nocc = 0
   mo_energy = [0.53810058 1.48514742 4.04678125]
alpha-B2g nocc = 0
   mo_energy = [0.53009451 1.45413409 3.99137499]
alpha-B3g nocc = 0
   mo_energy = [0.53009451 1.45413409 3.99137499]
alpha-B1u nocc = 1  HOMO = -0.236753942604431  LUMO = 0.161259127210927
   mo_energy = [-0.23675394  0.16125913  0.46245252  1.68444295 25.96227576]
alpha-B2u nocc = 1  HOMO = -0.146510343539557  LUMO = 0.163542331252483
   mo_energy = [-0.14651034  0.16354233  0.48197093  1.7443861  26.0034942 ]
alpha-B3u nocc = 1  HOMO = -0.146510343539556  LUMO = 0.163542331252482
   mo_energy = [-0.14651034  0.16354233  0.48197093  1.7443861  26.0034942 ]
beta-Ag nocc = 2  HOMO = -0.736488802912512  LUMO = 0.189484297906538
   mo_energy = [-20.18763808  -0.7364888    0.1894843    0.53065482   0.53335041
   0.54007745   1.4872131    1.50099461   2.23218809   4.07372581
   4.09344176  20.98487168]
beta-B1g nocc = 0
   mo_energy = [0.53335041 1.4872131  4.07372581]
beta-B2g nocc = 0
   mo_energy = [0.53145176 1.49690487 4.08795167]
beta-B3g nocc = 0
   mo_energy = [0.53145176 1.49690487 4.08795167]
beta-B1u nocc = 0
   mo_energy = [ 0.16043168  0.37983078  0.62055372  1.86366741 26.0393472 ]
beta-B2u nocc = 1  HOMO = -0.0799607367736161  LUMO = 0.164092645577516
   mo_energy = [-0.07996074  0.16409265  0.49192155  1.77973004 26.02362124]
beta-B3u nocc = 1  HOMO = -0.0799607367736144  LUMO = 0.164092645577516
   mo_energy = [-0.07996074  0.16409265  0.49192155  1.77973004 26.02362124]
multiplicity <S^2> = 0.7718189  2S+1 = 2.0217012
E1 = -106.78235501222888  Ecoul = 32.01252214664993
cycle= 20 E= -74.7698328655789  delta_E= -1.42e-14  |g|= 3.83e-09  |ddm|= 8.49e-09
    CPU time for cycle= 20      0.03 sec, wall time      0.01 sec
diis-norm(errvec)=5.41162e-09
Linear dependence found in DIIS error vectors.
diis-c [-2.89052492e-16  1.25000000e-01  1.25000000e-01  1.25000000e-01
  1.25000000e-01  1.25000000e-01  1.25000000e-01  1.25000000e-01
  1.25000000e-01]
alpha HOMO (B3u) = -0.146510340044323  LUMO (B1u) = 0.16125912733332
alpha irrep_nelec = [2, 0, 0, 0, 1, 1, 1]
beta  irrep_nelec = [2, 0, 0, 0, 0, 1, 1]
alpha-Ag nocc = 2  HOMO = -0.914618591157766  LUMO = 0.19041841991483
   mo_energy = [-20.22886912  -0.91461859   0.19041842   0.52088456   0.53648303
   0.53810058   1.44384022   1.48514742   2.18000707   3.97385592
   4.04678126  20.94519236]
alpha-B1g nocc = 0
   mo_energy = [0.53810058 1.48514742 4.04678126]
alpha-B2g nocc = 0
   mo_energy = [0.53009451 1.45413409 3.991375  ]
alpha-B3g nocc = 0
   mo_energy = [0.53009451 1.45413409 3.991375  ]
alpha-B1u nocc = 1  HOMO = -0.236753939735063  LUMO = 0.16125912733332
   mo_energy = [-0.23675394  0.16125913  0.46245252  1.68444295 25.96227575]
alpha-B2u nocc = 1  HOMO = -0.146510340044323  LUMO = 0.16354233130549
   mo_energy = [-0.14651034  0.16354233  0.48197093  1.7443861  26.0034942 ]
alpha-B3u nocc = 1  HOMO = -0.146510340044323  LUMO = 0.16354233130549
   mo_energy = [-0.14651034  0.16354233  0.48197093  1.7443861  26.0034942 ]
beta-Ag nocc = 2  HOMO = -0.736488804714167  LUMO = 0.189484298629977
   mo_energy = [-20.18763808  -0.7364888    0.1894843    0.53065482   0.53335042
   0.54007745   1.4872131    1.50099461   2.23218809   4.07372581
   4.09344176  20.98487168]
beta-B1g nocc = 0
   mo_energy = [0.53335042 1.4872131  4.07372581]
beta-B2g nocc = 0
   mo_energy = [0.53145176 1.49690487 4.08795167]
beta-B3g nocc = 0
   mo_energy = [0.53145176 1.49690487 4.08795167]
beta-B1u nocc = 0
   mo_energy = [ 0.16043168  0.37983078  0.62055372  1.86366741 26.0393472 ]
beta-B2u nocc = 1  HOMO = -0.0799607395454396  LUMO = 0.164092645619426
   mo_energy = [-0.07996074  0.16409265  0.49192155  1.77973004 26.02362123]
beta-B3u nocc = 1  HOMO = -0.0799607395454385  LUMO = 0.164092645619425
   mo_energy = [-0.07996074  0.16409265  0.49192155  1.77973004 26.02362123]
multiplicity <S^2> = 0.77181889  2S+1 = 2.0217012
E1 = -106.78235503833031  Ecoul = 32.01252217275139
cycle= 21 E= -74.7698328655789  delta_E= 2.84e-14  |g|= 1.33e-09  |ddm|= 1.21e-08
    CPU time for cycle= 21      0.03 sec, wall time      0.01 sec
diis-norm(errvec)=1.87999e-09
Linear dependence found in DIIS error vectors.
diis-c [-2.89052492e-16  1.25000000e-01  1.25000000e-01  1.25000000e-01
  1.25000000e-01  1.25000000e-01  1.25000000e-01  1.25000000e-01
  1.25000000e-01]
alpha HOMO (B3u) = -0.146510339962232  LUMO (B1u) = 0.161259127342342
alpha irrep_nelec = [2, 0, 0, 0, 1, 1, 1]
beta  irrep_nelec = [2, 0, 0, 0, 0, 1, 1]
alpha-Ag nocc = 2  HOMO = -0.914618591046715  LUMO = 0.190418419935148
   mo_energy = [-20.22886912  -0.91461859   0.19041842   0.52088456   0.53648303
   0.53810058   1.44384022   1.48514742   2.18000707   3.97385592
   4.04678126  20.94519236]
alpha-B1g nocc = 0
   mo_energy = [0.53810058 1.48514742 4.04678126]
alpha-B2g nocc = 0
   mo_energy = [0.53009451 1.45413409 3.991375  ]
alpha-B3g nocc = 0
   mo_energy = [0.53009451 1.45413409 3.991375  ]
alpha-B1u nocc = 1  HOMO = -0.236753939665846  LUMO = 0.161259127342342
   mo_energy = [-0.23675394  0.16125913  0.46245252  1.68444295 25.96227575]
alpha-B2u nocc = 1  HOMO = -0.146510339962234  LUMO = 0.163542331310391
   mo_energy = [-0.14651034  0.16354233  0.48197093  1.7443861  26.0034942 ]
alpha-B3u nocc = 1  HOMO = -0.146510339962232  LUMO = 0.163542331310391
   mo_energy = [-0.14651034  0.16354233  0.48197093  1.7443861  26.0034942 ]
beta-Ag nocc = 2  HOMO = -0.73648880465897  LUMO = 0.189484298682408
   mo_energy = [-20.18763808  -0.7364888    0.1894843    0.53065482   0.53335042
   0.54007745   1.4872131    1.50099461   2.23218809   4.07372581
   4.09344176  20.98487168]
beta-B1g nocc = 0
   mo_energy = [0.53335042 1.4872131  4.07372581]
beta-B2g nocc = 0
   mo_energy = [0.53145176 1.49690487 4.08795167]
beta-B3g nocc = 0
   mo_energy = [0.53145176 1.49690487 4.08795167]
beta-B1u nocc = 0
   mo_energy = [ 0.16043168  0.37983078  0.62055372  1.86366741 26.0393472 ]
beta-B2u nocc = 1  HOMO = -0.0799607395291111  LUMO = 0.164092645628227
   mo_energy = [-0.07996074  0.16409265  0.49192155  1.77973004 26.02362123]
beta-B3u nocc = 1  HOMO = -0.0799607395291085  LUMO = 0.164092645628227
   mo_energy = [-0.07996074  0.16409265  0.49192155  1.77973004 26.02362123]
multiplicity <S^2> = 0.77181889  2S+1 = 2.0217012
E1 = -106.78235503998164  Ecoul = 32.012522174402804
cycle= 22 E= -74.7698328655788  delta_E= 8.53e-14  |g|= 1.25e-09  |ddm|= 9.66e-10
    CPU time for cycle= 22      0.03 sec, wall time      0.01 sec
diis-norm(errvec)=1.77422e-09
Linear dependence found in DIIS error vectors.
diis-c [-2.89052492e-16  1.25000000e-01  1.25000000e-01  1.25000000e-01
  1.25000000e-01  1.25000000e-01  1.25000000e-01  1.25000000e-01
  1.25000000e-01]
alpha HOMO (B3u) = -0.146510340008584  LUMO (B1u) = 0.161259127345193
alpha irrep_nelec = [2, 0, 0, 0, 1, 1, 1]
beta  irrep_nelec = [2, 0, 0, 0, 0, 1, 1]
alpha-Ag nocc = 2  HOMO = -0.91461859106688  LUMO = 0.190418419946217
   mo_energy = [-20.22886912  -0.91461859   0.19041842   0.52088456   0.53648303
   0.53810058   1.44384022   1.48514742   2.18000707   3.97385592
   4.04678126  20.94519236]
alpha-B1g nocc = 0
   mo_energy = [0.53810058 1.48514742 4.04678126]
alpha-B2g nocc = 0
   mo_energy = [0.53009451 1.45413409 3.991375  ]
alpha-B3g nocc = 0
   mo_energy = [0.53009451 1.45413409 3.991375  ]
alpha-B1u nocc = 1  HOMO = -0.236753939707725  LUMO = 0.161259127345193
   mo_energy = [-0.23675394  0.16125913  0.46245252  1.68444295 25.96227575]
alpha-B2u nocc = 1  HOMO = -0.146510340008584  LUMO = 0.163542331312324
   mo_energy = [-0.14651034  0.16354233  0.48197093  1.7443861  26.0034942 ]
alpha-B3u nocc = 1  HOMO = -0.146510340008584  LUMO = 0.163542331312324
   mo_energy = [-0.14651034  0.16354233  0.48197093  1.7443861  26.0034942 ]
beta-Ag nocc = 2  HOMO = -0.736488804581236  LUMO = 0.189484298698828
   mo_energy = [-20.18763808  -0.7364888    0.1894843    0.53065482   0.53335042
   0.54007745   1.4872131    1.50099461   2.23218809   4.07372581
   4.09344176  20.98487168]
beta-B1g nocc = 0
   mo_energy = [0.53335042 1.4872131  4.07372581]
beta-B2g nocc = 0
   mo_energy = [0.53145176 1.49690487 4.08795167]
beta-B3g nocc = 0
   mo_energy = [0.53145176 1.49690487 4.08795167]
beta-B1u nocc = 0
   mo_energy = [ 0.16043168  0.37983078  0.62055372  1.86366741 26.0393472 ]
beta-B2u nocc = 1  HOMO = -0.0799607394499212  LUMO = 0.164092645633186
   mo_energy = [-0.07996074  0.16409265  0.49192155  1.77973004 26.02362123]
beta-B3u nocc = 1  HOMO = -0.079960739449921  LUMO = 0.164092645633185
   mo_energy = [-0.07996074  0.16409265  0.49192155  1.77973004 26.02362123]
multiplicity <S^2> = 0.77181889  2S+1 = 2.0217012
E1 = -106.78235504042675  Ecoul = 32.012522174847845
cycle= 23 E= -74.7698328655789  delta_E= -7.11e-14  |g|= 1.23e-09  |ddm|= 3.44e-10
    CPU time for cycle= 23      0.03 sec, wall time      0.01 sec
diis-norm(errvec)=1.73611e-09
Linear dependence found in DIIS error vectors.
diis-c [-2.89052492e-16  1.25000000e-01  1.25000000e-01  1.25000000e-01
  1.25000000e-01  1.25000000e-01  1.25000000e-01  1.25000000e-01
  1.25000000e-01]
alpha HOMO (B2u) = -0.146510340115664  LUMO (B1u) = 0.161259127346371
alpha irrep_nelec = [2, 0, 0, 0, 1, 1, 1]
beta  irrep_nelec = [2, 0, 0, 0, 0, 1, 1]
alpha-Ag nocc = 2  HOMO = -0.914618591158064  LUMO = 0.190418419955384
   mo_energy = [-20.22886912  -0.91461859   0.19041842   0.52088456   0.53648303
   0.53810058   1.44384022   1.48514742   2.18000707   3.97385592
   4.04678126  20.94519236]
alpha-B1g nocc = 0
   mo_energy = [0.53810058 1.48514742 4.04678126]
alpha-B2g nocc = 0
   mo_energy = [0.53009451 1.45413409 3.991375  ]
alpha-B3g nocc = 0
   mo_energy = [0.53009451 1.45413409 3.991375  ]
alpha-B1u nocc = 1  HOMO = -0.236753939812926  LUMO = 0.161259127346371
   mo_energy = [-0.23675394  0.16125913  0.46245252  1.68444295 25.96227575]
alpha-B2u nocc = 1  HOMO = -0.146510340115664  LUMO = 0.163542331313565
   mo_energy = [-0.14651034  0.16354233  0.48197093  1.7443861  26.0034942 ]
alpha-B3u nocc = 1  HOMO = -0.146510340115664  LUMO = 0.163542331313565
   mo_energy = [-0.14651034  0.16354233  0.48197093  1.7443861  26.0034942 ]
beta-Ag nocc = 2  HOMO = -0.736488804494535  LUMO = 0.189484298706863
   mo_energy = [-20.18763808  -0.7364888    0.1894843    0.53065482   0.53335042
   0.54007745   1.4872131    1.50099461   2.23218809   4.07372581
   4.09344176  20.98487168]
beta-B1g nocc = 0
   mo_energy = [0.53335042 1.4872131  4.07372581]
beta-B2g nocc = 0
   mo_energy = [0.53145176 1.49690487 4.08795167]
beta-B3g nocc = 0
   mo_energy = [0.53145176 1.49690487 4.08795167]
beta-B1u nocc = 0
   mo_energy = [ 0.16043168  0.37983078  0.62055372  1.86366741 26.0393472 ]
beta-B2u nocc = 1  HOMO = -0.079960739346343  LUMO = 0.164092645637728
   mo_energy = [-0.07996074  0.16409265  0.49192155  1.77973004 26.02362123]
beta-B3u nocc = 1  HOMO = -0.0799607393463426  LUMO = 0.164092645637727
   mo_energy = [-0.07996074  0.16409265  0.49192155  1.77973004 26.02362123]
multiplicity <S^2> = 0.77181889  2S+1 = 2.0217012
E1 = -106.78235504069053  Ecoul = 32.01252217511163
cycle= 24 E= -74.7698328655789  delta_E=    0  |g|= 1.23e-09  |ddm|= 3.12e-10
    CPU time for cycle= 24      0.03 sec, wall time      0.01 sec
diis-norm(errvec)=1.7419e-09
Linear dependence found in DIIS error vectors.
diis-c [-2.89052492e-16  1.25000000e-01  1.25000000e-01  1.25000000e-01
  1.25000000e-01  1.25000000e-01  1.25000000e-01  1.25000000e-01
  1.25000000e-01]
alpha HOMO (B3u) = -0.146510340017183  LUMO (B1u) = 0.161259127347001
alpha irrep_nelec = [2, 0, 0, 0, 1, 1, 1]
[...]
   mo_energy = [-0.07996074  0.16409265  0.49192155  1.77973004 26.02362123]
multiplicity <S^2> = 0.77181889  2S+1 = 2.0217012
E1 = -106.7823550405753  Ecoul = 32.01252217499639
cycle= 219 E= -74.7698328655789  delta_E= -2.84e-14  |g|= 6.83e-14  |ddm|= 1.07e-14
    CPU time for cycle= 219      0.03 sec, wall time      0.01 sec
diis-norm(errvec)=9.38572e-14
Linear dependence found in DIIS error vectors.
diis-c [-2.89052492e-16  1.25000000e-01  1.25000000e-01  1.25000000e-01
  1.25000000e-01  1.25000000e-01  1.25000000e-01  1.25000000e-01
  1.25000000e-01]
alpha HOMO (B2u) = -0.14651033818967  LUMO (B1u) = 0.161259127382249
alpha irrep_nelec = [2, 0, 0, 0, 1, 1, 1]
beta  irrep_nelec = [2, 0, 0, 0, 0, 1, 1]
alpha-Ag nocc = 2  HOMO = -0.914618589357535  LUMO = 0.190418420010998
   mo_energy = [-20.22886912  -0.91461859   0.19041842   0.52088456   0.53648303
   0.53810058   1.44384022   1.48514742   2.18000707   3.97385592
   4.04678126  20.94519236]
alpha-B1g nocc = 0
   mo_energy = [0.53810058 1.48514742 4.04678126]
alpha-B2g nocc = 0
   mo_energy = [0.53009451 1.45413409 3.991375  ]
alpha-B3g nocc = 0
   mo_energy = [0.53009451 1.45413409 3.991375  ]
alpha-B1u nocc = 1  HOMO = -0.236753938628659  LUMO = 0.161259127382249
   mo_energy = [-0.23675394  0.16125913  0.46245252  1.68444295 25.96227576]
alpha-B2u nocc = 1  HOMO = -0.14651033818967  LUMO = 0.163542331338548
   mo_energy = [-0.14651034  0.16354233  0.48197093  1.7443861  26.0034942 ]
alpha-B3u nocc = 1  HOMO = -0.146510338189671  LUMO = 0.163542331338548
   mo_energy = [-0.14651034  0.16354233  0.48197093  1.7443861  26.0034942 ]
beta-Ag nocc = 2  HOMO = -0.736488803776383  LUMO = 0.18948429894526
   mo_energy = [-20.18763808  -0.7364888    0.1894843    0.53065482   0.53335042
   0.54007745   1.48721311   1.50099461   2.23218809   4.07372581
   4.09344176  20.98487168]
beta-B1g nocc = 0
   mo_energy = [0.53335042 1.48721311 4.07372581]
beta-B2g nocc = 0
   mo_energy = [0.53145176 1.49690487 4.08795167]
beta-B3g nocc = 0
   mo_energy = [0.53145176 1.49690487 4.08795167]
beta-B1u nocc = 0
   mo_energy = [ 0.16043168  0.37983078  0.62055372  1.86366741 26.0393472 ]
beta-B2u nocc = 1  HOMO = -0.0799607392301663  LUMO = 0.164092645668402
   mo_energy = [-0.07996074  0.16409265  0.49192155  1.77973004 26.02362123]
beta-B3u nocc = 1  HOMO = -0.079960739230166  LUMO = 0.164092645668402
   mo_energy = [-0.07996074  0.16409265  0.49192155  1.77973004 26.02362123]
multiplicity <S^2> = 0.77181889  2S+1 = 2.0217012
E1 = -106.78235504057533  Ecoul = 32.012522174996434
cycle= 220 E= -74.7698328655789  delta_E= 1.42e-14  |g|= 6.82e-14  |ddm|= 1.18e-14
    CPU time for cycle= 220      0.03 sec, wall time      0.01 sec
diis-norm(errvec)=8.61883e-14
Linear dependence found in DIIS error vectors.
diis-c [-2.89052492e-16  1.25000000e-01  1.25000000e-01  1.25000000e-01
  1.25000000e-01  1.25000000e-01  1.25000000e-01  1.25000000e-01
  1.25000000e-01]
alpha HOMO (B2u) = -0.146510338189664  LUMO (B1u) = 0.161259127382249
alpha irrep_nelec = [2, 0, 0, 0, 1, 1, 1]
beta  irrep_nelec = [2, 0, 0, 0, 0, 1, 1]
alpha-Ag nocc = 2  HOMO = -0.914618589357533  LUMO = 0.190418420010997
   mo_energy = [-20.22886912  -0.91461859   0.19041842   0.52088456   0.53648303
   0.53810058   1.44384022   1.48514742   2.18000707   3.97385592
   4.04678126  20.94519236]
alpha-B1g nocc = 0
   mo_energy = [0.53810058 1.48514742 4.04678126]
alpha-B2g nocc = 0
   mo_energy = [0.53009451 1.45413409 3.991375  ]
alpha-B3g nocc = 0
   mo_energy = [0.53009451 1.45413409 3.991375  ]
alpha-B1u nocc = 1  HOMO = -0.236753938628658  LUMO = 0.161259127382249
   mo_energy = [-0.23675394  0.16125913  0.46245252  1.68444295 25.96227576]
alpha-B2u nocc = 1  HOMO = -0.146510338189664  LUMO = 0.163542331338549
   mo_energy = [-0.14651034  0.16354233  0.48197093  1.7443861  26.0034942 ]
alpha-B3u nocc = 1  HOMO = -0.146510338189666  LUMO = 0.163542331338548
   mo_energy = [-0.14651034  0.16354233  0.48197093  1.7443861  26.0034942 ]
beta-Ag nocc = 2  HOMO = -0.736488803776379  LUMO = 0.189484298945261
   mo_energy = [-20.18763808  -0.7364888    0.1894843    0.53065482   0.53335042
   0.54007745   1.48721311   1.50099461   2.23218809   4.07372581
   4.09344176  20.98487168]
beta-B1g nocc = 0
   mo_energy = [0.53335042 1.48721311 4.07372581]
beta-B2g nocc = 0
   mo_energy = [0.53145176 1.49690487 4.08795167]
beta-B3g nocc = 0
   mo_energy = [0.53145176 1.49690487 4.08795167]
beta-B1u nocc = 0
   mo_energy = [ 0.16043168  0.37983078  0.62055372  1.86366741 26.0393472 ]
beta-B2u nocc = 1  HOMO = -0.0799607392301716  LUMO = 0.164092645668402
   mo_energy = [-0.07996074  0.16409265  0.49192155  1.77973004 26.02362123]
beta-B3u nocc = 1  HOMO = -0.0799607392301691  LUMO = 0.164092645668402
   mo_energy = [-0.07996074  0.16409265  0.49192155  1.77973004 26.02362123]
multiplicity <S^2> = 0.77181889  2S+1 = 2.0217012
E1 = -106.7823550405753  Ecoul = 32.01252217499641
cycle= 221 E= -74.7698328655789  delta_E= 1.42e-14  |g|= 7.68e-14  |ddm|= 1.4e-14
    CPU time for cycle= 221      0.03 sec, wall time      0.01 sec
diis-norm(errvec)=9.5047e-14
Linear dependence found in DIIS error vectors.
diis-c [-2.89052492e-16  1.25000000e-01  1.25000000e-01  1.25000000e-01
  1.25000000e-01  1.25000000e-01  1.25000000e-01  1.25000000e-01
  1.25000000e-01]
alpha HOMO (B2u) = -0.14651033818966  LUMO (B1u) = 0.161259127382249
alpha irrep_nelec = [2, 0, 0, 0, 1, 1, 1]
beta  irrep_nelec = [2, 0, 0, 0, 0, 1, 1]
alpha-Ag nocc = 2  HOMO = -0.914618589357528  LUMO = 0.190418420010998
   mo_energy = [-20.22886912  -0.91461859   0.19041842   0.52088456   0.53648303
   0.53810058   1.44384022   1.48514742   2.18000707   3.97385592
   4.04678126  20.94519236]
alpha-B1g nocc = 0
   mo_energy = [0.53810058 1.48514742 4.04678126]
alpha-B2g nocc = 0
   mo_energy = [0.53009451 1.45413409 3.991375  ]
alpha-B3g nocc = 0
   mo_energy = [0.53009451 1.45413409 3.991375  ]
alpha-B1u nocc = 1  HOMO = -0.236753938628655  LUMO = 0.161259127382249
   mo_energy = [-0.23675394  0.16125913  0.46245252  1.68444295 25.96227576]
alpha-B2u nocc = 1  HOMO = -0.14651033818966  LUMO = 0.163542331338549
   mo_energy = [-0.14651034  0.16354233  0.48197093  1.7443861  26.0034942 ]
alpha-B3u nocc = 1  HOMO = -0.146510338189661  LUMO = 0.163542331338548
   mo_energy = [-0.14651034  0.16354233  0.48197093  1.7443861  26.0034942 ]
beta-Ag nocc = 2  HOMO = -0.736488803776385  LUMO = 0.189484298945261
   mo_energy = [-20.18763808  -0.7364888    0.1894843    0.53065482   0.53335042
   0.54007745   1.48721311   1.50099461   2.23218809   4.07372581
   4.09344176  20.98487168]
beta-B1g nocc = 0
   mo_energy = [0.53335042 1.48721311 4.07372581]
beta-B2g nocc = 0
   mo_energy = [0.53145176 1.49690487 4.08795167]
beta-B3g nocc = 0
   mo_energy = [0.53145176 1.49690487 4.08795167]
beta-B1u nocc = 0
   mo_energy = [ 0.16043168  0.37983078  0.62055372  1.86366741 26.0393472 ]
beta-B2u nocc = 1  HOMO = -0.0799607392301735  LUMO = 0.164092645668402
   mo_energy = [-0.07996074  0.16409265  0.49192155  1.77973004 26.02362123]
beta-B3u nocc = 1  HOMO = -0.0799607392301733  LUMO = 0.164092645668402
   mo_energy = [-0.07996074  0.16409265  0.49192155  1.77973004 26.02362123]
multiplicity <S^2> = 0.77181889  2S+1 = 2.0217012
E1 = -106.78235504057531  Ecoul = 32.01252217499644
cycle= 222 E= -74.7698328655789  delta_E=    0  |g|= 7.02e-14  |ddm|= 1.05e-14
    CPU time for cycle= 222      0.03 sec, wall time      0.01 sec
diis-norm(errvec)=9.89877e-14
Linear dependence found in DIIS error vectors.
diis-c [-2.89052492e-16  1.25000000e-01  1.25000000e-01  1.25000000e-01
  1.25000000e-01  1.25000000e-01  1.25000000e-01  1.25000000e-01
  1.25000000e-01]
alpha HOMO (B3u) = -0.146510338189657  LUMO (B1u) = 0.161259127382249
alpha irrep_nelec = [2, 0, 0, 0, 1, 1, 1]
beta  irrep_nelec = [2, 0, 0, 0, 0, 1, 1]
alpha-Ag nocc = 2  HOMO = -0.914618589357522  LUMO = 0.190418420010997
   mo_energy = [-20.22886912  -0.91461859   0.19041842   0.52088456   0.53648303
   0.53810058   1.44384022   1.48514742   2.18000707   3.97385592
   4.04678126  20.94519236]
alpha-B1g nocc = 0
   mo_energy = [0.53810058 1.48514742 4.04678126]
alpha-B2g nocc = 0
   mo_energy = [0.53009451 1.45413409 3.991375  ]
alpha-B3g nocc = 0
   mo_energy = [0.53009451 1.45413409 3.991375  ]
alpha-B1u nocc = 1  HOMO = -0.236753938628651  LUMO = 0.161259127382249
   mo_energy = [-0.23675394  0.16125913  0.46245252  1.68444295 25.96227576]
alpha-B2u nocc = 1  HOMO = -0.146510338189658  LUMO = 0.163542331338549
   mo_energy = [-0.14651034  0.16354233  0.48197093  1.7443861  26.0034942 ]
alpha-B3u nocc = 1  HOMO = -0.146510338189657  LUMO = 0.163542331338549
   mo_energy = [-0.14651034  0.16354233  0.48197093  1.7443861  26.0034942 ]
beta-Ag nocc = 2  HOMO = -0.736488803776385  LUMO = 0.189484298945262
   mo_energy = [-20.18763808  -0.7364888    0.1894843    0.53065482   0.53335042
   0.54007745   1.48721311   1.50099461   2.23218809   4.07372581
   4.09344176  20.98487168]
beta-B1g nocc = 0
   mo_energy = [0.53335042 1.48721311 4.07372581]
beta-B2g nocc = 0
   mo_energy = [0.53145176 1.49690487 4.08795167]
beta-B3g nocc = 0
   mo_energy = [0.53145176 1.49690487 4.08795167]
beta-B1u nocc = 0
   mo_energy = [ 0.16043168  0.37983078  0.62055372  1.86366741 26.0393472 ]
beta-B2u nocc = 1  HOMO = -0.0799607392301735  LUMO = 0.164092645668402
   mo_energy = [-0.07996074  0.16409265  0.49192155  1.77973004 26.02362123]
beta-B3u nocc = 1  HOMO = -0.0799607392301771  LUMO = 0.164092645668402
   mo_energy = [-0.07996074  0.16409265  0.49192155  1.77973004 26.02362123]
multiplicity <S^2> = 0.77181889  2S+1 = 2.0217012
E1 = -106.78235504057528  Ecoul = 32.01252217499643
cycle= 223 E= -74.7698328655788  delta_E= 2.84e-14  |g|= 6.11e-14  |ddm|= 1.14e-14
    CPU time for cycle= 223      0.03 sec, wall time      0.01 sec
diis-norm(errvec)=9.22612e-14
Linear dependence found in DIIS error vectors.
diis-c [-2.89052492e-16  1.25000000e-01  1.25000000e-01  1.25000000e-01
  1.25000000e-01  1.25000000e-01  1.25000000e-01  1.25000000e-01
  1.25000000e-01]
alpha HOMO (B3u) = -0.146510338189652  LUMO (B1u) = 0.161259127382249
alpha irrep_nelec = [2, 0, 0, 0, 1, 1, 1]
beta  irrep_nelec = [2, 0, 0, 0, 0, 1, 1]
alpha-Ag nocc = 2  HOMO = -0.914618589357519  LUMO = 0.190418420010997
   mo_energy = [-20.22886912  -0.91461859   0.19041842   0.52088456   0.53648303
   0.53810058   1.44384022   1.48514742   2.18000707   3.97385592
   4.04678126  20.94519236]
alpha-B1g nocc = 0
   mo_energy = [0.53810058 1.48514742 4.04678126]
alpha-B2g nocc = 0
   mo_energy = [0.53009451 1.45413409 3.991375  ]
alpha-B3g nocc = 0
   mo_energy = [0.53009451 1.45413409 3.991375  ]
alpha-B1u nocc = 1  HOMO = -0.23675393862865  LUMO = 0.161259127382249
   mo_energy = [-0.23675394  0.16125913  0.46245252  1.68444295 25.96227576]
alpha-B2u nocc = 1  HOMO = -0.146510338189654  LUMO = 0.163542331338548
   mo_energy = [-0.14651034  0.16354233  0.48197093  1.7443861  26.0034942 ]
alpha-B3u nocc = 1  HOMO = -0.146510338189652  LUMO = 0.163542331338548
   mo_energy = [-0.14651034  0.16354233  0.48197093  1.7443861  26.0034942 ]
beta-Ag nocc = 2  HOMO = -0.736488803776387  LUMO = 0.189484298945262
   mo_energy = [-20.18763808  -0.7364888    0.1894843    0.53065482   0.53335042
   0.54007745   1.48721311   1.50099461   2.23218809   4.07372581
   4.09344176  20.98487168]
beta-B1g nocc = 0
   mo_energy = [0.53335042 1.48721311 4.07372581]
beta-B2g nocc = 0
   mo_energy = [0.53145176 1.49690487 4.08795167]
beta-B3g nocc = 0
   mo_energy = [0.53145176 1.49690487 4.08795167]
beta-B1u nocc = 0
   mo_energy = [ 0.16043168  0.37983078  0.62055372  1.86366741 26.0393472 ]
beta-B2u nocc = 1  HOMO = -0.0799607392301783  LUMO = 0.164092645668402
   mo_energy = [-0.07996074  0.16409265  0.49192155  1.77973004 26.02362123]
beta-B3u nocc = 1  HOMO = -0.0799607392301795  LUMO = 0.164092645668402
   mo_energy = [-0.07996074  0.16409265  0.49192155  1.77973004 26.02362123]
multiplicity <S^2> = 0.77181889  2S+1 = 2.0217012
E1 = -106.78235504057528  Ecoul = 32.01252217499644
cycle= 224 E= -74.7698328655788  delta_E=    0  |g|= 6.24e-14  |ddm|= 1.51e-14
    CPU time for cycle= 224      0.03 sec, wall time      0.01 sec
diis-norm(errvec)=7.53689e-14
Linear dependence found in DIIS error vectors.
diis-c [-2.89052492e-16  1.25000000e-01  1.25000000e-01  1.25000000e-01
  1.25000000e-01  1.25000000e-01  1.25000000e-01  1.25000000e-01
  1.25000000e-01]
alpha HOMO (B3u) = -0.146510338189649  LUMO (B1u) = 0.161259127382249
alpha irrep_nelec = [2, 0, 0, 0, 1, 1, 1]
beta  irrep_nelec = [2, 0, 0, 0, 0, 1, 1]
alpha-Ag nocc = 2  HOMO = -0.914618589357517  LUMO = 0.190418420010997
   mo_energy = [-20.22886912  -0.91461859   0.19041842   0.52088456   0.53648303
   0.53810058   1.44384022   1.48514742   2.18000707   3.97385592
   4.04678126  20.94519236]
alpha-B1g nocc = 0
   mo_energy = [0.53810058 1.48514742 4.04678126]
alpha-B2g nocc = 0
   mo_energy = [0.53009451 1.45413409 3.991375  ]
alpha-B3g nocc = 0
   mo_energy = [0.53009451 1.45413409 3.991375  ]
alpha-B1u nocc = 1  HOMO = -0.236753938628649  LUMO = 0.161259127382249
   mo_energy = [-0.23675394  0.16125913  0.46245252  1.68444295 25.96227576]
alpha-B2u nocc = 1  HOMO = -0.146510338189651  LUMO = 0.163542331338548
   mo_energy = [-0.14651034  0.16354233  0.48197093  1.7443861  26.0034942 ]
alpha-B3u nocc = 1  HOMO = -0.146510338189649  LUMO = 0.163542331338548
   mo_energy = [-0.14651034  0.16354233  0.48197093  1.7443861  26.0034942 ]
beta-Ag nocc = 2  HOMO = -0.736488803776388  LUMO = 0.189484298945263
   mo_energy = [-20.18763808  -0.7364888    0.1894843    0.53065482   0.53335042
   0.54007745   1.48721311   1.50099461   2.23218809   4.07372581
   4.09344176  20.98487168]
beta-B1g nocc = 0
   mo_energy = [0.53335042 1.48721311 4.07372581]
beta-B2g nocc = 0
   mo_energy = [0.53145176 1.49690487 4.08795167]
beta-B3g nocc = 0
   mo_energy = [0.53145176 1.49690487 4.08795167]
beta-B1u nocc = 0
   mo_energy = [ 0.16043168  0.37983078  0.62055372  1.86366741 26.0393472 ]
beta-B2u nocc = 1  HOMO = -0.0799607392301809  LUMO = 0.164092645668402
   mo_energy = [-0.07996074  0.16409265  0.49192155  1.77973004 26.02362123]
beta-B3u nocc = 1  HOMO = -0.0799607392301814  LUMO = 0.164092645668402
   mo_energy = [-0.07996074  0.16409265  0.49192155  1.77973004 26.02362123]
multiplicity <S^2> = 0.77181889  2S+1 = 2.0217012
E1 = -106.78235504057528  Ecoul = 32.012522174996434
cycle= 225 E= -74.7698328655788  delta_E=    0  |g|= 5.23e-14  |ddm|= 1.28e-14
    CPU time for cycle= 225      0.03 sec, wall time      0.01 sec
diis-norm(errvec)=7.19914e-14
Linear dependence found in DIIS error vectors.
diis-c [-2.89052492e-16  1.25000000e-01  1.25000000e-01  1.25000000e-01
  1.25000000e-01  1.25000000e-01  1.25000000e-01  1.25000000e-01
  1.25000000e-01]
alpha HOMO (B3u) = -0.146510338189646  LUMO (B1u) = 0.161259127382248
alpha irrep_nelec = [2, 0, 0, 0, 1, 1, 1]
beta  irrep_nelec = [2, 0, 0, 0, 0, 1, 1]
alpha-Ag nocc = 2  HOMO = -0.914618589357515  LUMO = 0.190418420010996
   mo_energy = [-20.22886912  -0.91461859   0.19041842   0.52088456   0.53648303
   0.53810058   1.44384022   1.48514742   2.18000707   3.97385592
   4.04678126  20.94519236]
alpha-B1g nocc = 0
   mo_energy = [0.53810058 1.48514742 4.04678126]
alpha-B2g nocc = 0
   mo_energy = [0.53009451 1.45413409 3.991375  ]
alpha-B3g nocc = 0
   mo_energy = [0.53009451 1.45413409 3.991375  ]
alpha-B1u nocc = 1  HOMO = -0.236753938628648  LUMO = 0.161259127382248
   mo_energy = [-0.23675394  0.16125913  0.46245252  1.68444295 25.96227576]
alpha-B2u nocc = 1  HOMO = -0.146510338189646  LUMO = 0.163542331338548
   mo_energy = [-0.14651034  0.16354233  0.48197093  1.7443861  26.0034942 ]
alpha-B3u nocc = 1  HOMO = -0.146510338189646  LUMO = 0.163542331338548
   mo_energy = [-0.14651034  0.16354233  0.48197093  1.7443861  26.0034942 ]
beta-Ag nocc = 2  HOMO = -0.736488803776391  LUMO = 0.189484298945263
   mo_energy = [-20.18763808  -0.7364888    0.1894843    0.53065482   0.53335042
   0.54007745   1.48721311   1.50099461   2.23218809   4.07372581
   4.09344176  20.98487168]
beta-B1g nocc = 0
   mo_energy = [0.53335042 1.48721311 4.07372581]
beta-B2g nocc = 0
   mo_energy = [0.53145176 1.49690487 4.08795167]
beta-B3g nocc = 0
   mo_energy = [0.53145176 1.49690487 4.08795167]
beta-B1u nocc = 0
   mo_energy = [ 0.16043168  0.37983078  0.62055372  1.86366741 26.0393472 ]
beta-B2u nocc = 1  HOMO = -0.079960739230182  LUMO = 0.164092645668402
   mo_energy = [-0.07996074  0.16409265  0.49192155  1.77973004 26.02362123]
beta-B3u nocc = 1  HOMO = -0.0799607392301832  LUMO = 0.164092645668402
   mo_energy = [-0.07996074  0.16409265  0.49192155  1.77973004 26.02362123]
multiplicity <S^2> = 0.77181889  2S+1 = 2.0217012
E1 = -106.78235504057528  Ecoul = 32.01252217499643
cycle= 226 E= -74.7698328655788  delta_E=    0  |g|= 4.94e-14  |ddm|= 8.99e-15
    CPU time for cycle= 226      0.03 sec, wall time      0.01 sec
alpha HOMO (B3u) = -0.146510338189633  LUMO (B1u) = 0.161259127382248
alpha irrep_nelec = [2, 0, 0, 0, 1, 1, 1]
beta  irrep_nelec = [2, 0, 0, 0, 0, 1, 1]
alpha-Ag nocc = 2  HOMO = -0.9146185893575  LUMO = 0.190418420010997
   mo_energy = [-20.22886912  -0.91461859   0.19041842   0.52088456   0.53648303
   0.53810058   1.44384022   1.48514742   2.18000707   3.97385592
   4.04678126  20.94519236]
alpha-B1g nocc = 0
   mo_energy = [0.53810058 1.48514742 4.04678126]
alpha-B2g nocc = 0
   mo_energy = [0.53009451 1.45413409 3.991375  ]
alpha-B3g nocc = 0
   mo_energy = [0.53009451 1.45413409 3.991375  ]
alpha-B1u nocc = 1  HOMO = -0.236753938628638  LUMO = 0.161259127382248
   mo_energy = [-0.23675394  0.16125913  0.46245252  1.68444295 25.96227576]
alpha-B2u nocc = 1  HOMO = -0.146510338189633  LUMO = 0.163542331338548
   mo_energy = [-0.14651034  0.16354233  0.48197093  1.7443861  26.0034942 ]
alpha-B3u nocc = 1  HOMO = -0.146510338189633  LUMO = 0.163542331338548
   mo_energy = [-0.14651034  0.16354233  0.48197093  1.7443861  26.0034942 ]
beta-Ag nocc = 2  HOMO = -0.736488803776398  LUMO = 0.189484298945264
   mo_energy = [-20.18763808  -0.7364888    0.1894843    0.53065482   0.53335042
   0.54007745   1.48721311   1.50099461   2.23218809   4.07372581
   4.09344176  20.98487168]
beta-B1g nocc = 0
   mo_energy = [0.53335042 1.48721311 4.07372581]
beta-B2g nocc = 0
   mo_energy = [0.53145176 1.49690487 4.08795167]
beta-B3g nocc = 0
   mo_energy = [0.53145176 1.49690487 4.08795167]
beta-B1u nocc = 0
   mo_energy = [ 0.16043168  0.37983078  0.62055372  1.86366741 26.0393472 ]
beta-B2u nocc = 1  HOMO = -0.0799607392301963  LUMO = 0.164092645668401
   mo_energy = [-0.07996074  0.16409265  0.49192155  1.77973004 26.02362123]
beta-B3u nocc = 1  HOMO = -0.0799607392301965  LUMO = 0.164092645668402
   mo_energy = [-0.07996074  0.16409265  0.49192155  1.77973004 26.02362123]
multiplicity <S^2> = 0.77181889  2S+1 = 2.0217012
E1 = -106.7823550405754  Ecoul = 32.01252217499653
Extra cycle  E= -74.7698328655789  delta_E= -1.42e-14  |g|= 4.95e-14  |ddm|= 8.99e-15
    CPU time for scf_cycle      7.09 sec, wall time      1.99 sec
    CPU time for SCF      7.15 sec, wall time      2.08 sec
converged SCF energy = -74.7698328655789  <S^2> = 0.77181889  2S+1 = 2.0217012
irreps of each MO ['Ag' 'Ag' 'B1u' 'B2u' 'B3u' 'B1u' 'B2u' 'B3u' 'Ag' 'B1u' 'B2u' 'B3u' 'Ag'
 'B2g' 'B3g' 'Ag' 'Ag' 'B1g' 'Ag' 'B2g' 'B3g' 'Ag' 'B1g' 'B1u' 'B2u' 'B3u'
 'Ag' 'Ag' 'B2g' 'B3g' 'Ag' 'B1g' 'Ag' 'B1u' 'B2u' 'B3u']
irreps of each MO ['Ag' 'Ag' 'B2u' 'B3u' 'B1u' 'B2u' 'B3u' 'Ag' 'B1u' 'B2u' 'B3u' 'Ag' 'B2g'
 'B3g' 'Ag' 'B1g' 'Ag' 'B1u' 'Ag' 'B1g' 'B2g' 'B3g' 'Ag' 'B2u' 'B3u' 'B1u'
 'Ag' 'Ag' 'B1g' 'B2g' 'B3g' 'Ag' 'Ag' 'B2u' 'B3u' 'B1u']
irreps of each MO ['Ag' 'Ag' 'B3u' 'B2u' 'B1u' 'B1u' 'B2u' 'B3u' 'Ag' 'B1u' 'B2u' 'B3u' 'Ag'
 'B3g' 'B2g' 'Ag' 'B1g' 'Ag' 'Ag' 'B2g' 'B3g' 'B1g' 'Ag' 'B1u' 'B2u' 'B3u'
 'Ag' 'Ag' 'B3g' 'B2g' 'Ag' 'B1g' 'Ag' 'B1u' 'B2u' 'B3u']
