#INFO: **** input file is /lustre09/project/6004934/jaafar1/PySCF-MRCC/Carbon/neutral/dawCV4Z/UHF/input.py ****
import pyscf
from pyscf import cc, lib, tools, scf, symm, ao2mo
from pyscf.gto.basis import parse_gaussian
from pyscf.scf import atom_hf

name = 'out'
mol = pyscf.M(
    atom = '''
        C
    ''',
    unit = 'angstrom',
    basis = {
            'C' : parse_gaussian.load('C-d-aug-cc-pwCVQZ.gbs', 'C')
    },
    charge = 0,
    spin = 2,
    symmetry = True,
    verbose = 9,
    symmetry_subgroup = 'D2h',
    output = name +'.txt',
    max_memory = 32000,
)

original_AtomSphAverageRHF = atom_hf.AtomSphAverageRHF

class CustomAtomSphAverageRHF(original_AtomSphAverageRHF):
    def __init__(self, mol):
        super().__init__(mol)
        self.max_cycle = 9999
        self.direct_scf = False

atom_hf.AtomSphAverageRHF = CustomAtomSphAverageRHF

mf = mol.UHF().set(
    conv_tol=1e-13,
    max_cycle=9999,
    ddm_tol=1e-12,
    direct_scf=False,
    chkfile=name + '.chk',
    init_guess='atom',
    irrep_nelec={'Ag': 4, 'B3u': 1, 'B2u': 1}
)

mf.kernel()

atom_hf.AtomSphAverageRHF = original_AtomSphAverageRHF

#pyscf.tools.fcidump.from_chkfile_uhf('FCIdump',name+'.chk',tol=1e-18, float_format='% 0.20E',molpro_orbsym=False,orbsym=None)
pyscf.tools.fcidump.from_scf_uhf(mf,'fort.55',tol=1e-18, float_format='% 0.20E',molpro_orbsym=False)
#MRCCInterface.run_mrcc(mf, fort_file='fort.55', mrcc_input_file='MINP', tol=1e-18, float_format='% 0.20E', molpro_orbsym=False)
#INFO: ******************** input file end ********************


System: uname_result(system='Linux', node='rc32006', release='5.14.0-687.12.1.el9_8.x86_64', version='#1 SMP PREEMPT_DYNAMIC Sun Jun 7 14:39:27 EDT 2026', machine='x86_64')  Threads 4
Python 3.13.2 (main, Feb  5 2025, 15:06:39) [GCC 13.3.0]
numpy 2.2.2  scipy 1.15.1  h5py 3.13.0
Date: Tue Jun  9 20:50:01 2026
PySCF version 2.10.0
PySCF path  /home/jaafar1/links/projects/rrg-tzeng/jaafar1/VENV/MRCCInterface/lib/python3.13/site-packages/pyscf

[CONFIG] ARGPARSE = False
[CONFIG] DEBUG = False
[CONFIG] MAX_MEMORY = 4000
[CONFIG] TMPDIR = /tmp
[CONFIG] UNIT = angstrom
[CONFIG] VERBOSE = 3
[CONFIG] conf_file = None
[INPUT] verbose = 9
[INPUT] max_memory = 32000 
[INPUT] num. atoms = 1
[INPUT] num. electrons = 6
[INPUT] charge = 0
[INPUT] spin (= nelec alpha-beta = 2S) = 2
[INPUT] symmetry True subgroup D2h
[INPUT] Mole.unit = angstrom
[INPUT] Symbol           X                Y                Z      unit          X                Y                Z       unit  Magmom
[INPUT]  1 C      0.000000000000   0.000000000000   0.000000000000 AA    0.000000000000   0.000000000000   0.000000000000 Bohr   0.0
[INPUT] ---------------- BASIS SET ---------------- 
[INPUT] l, kappa, [nprim/nctr], expnt,             c_1 c_2 ...
[INPUT] C
[INPUT] 0    0    [1    /1   ]  40.881               1
[INPUT] 0    0    [1    /1   ]  15.109               1
[INPUT] 0    0    [12   /2   ]  33980             9.1e-05 -1.9e-05
                                5089              0.000704 -0.000151
                                1157              0.003693 -0.000785
                                326.6             0.01536 -0.003324
                                106.1             0.052929 -0.011512
                                38.11             0.147043 -0.03416
                                14.75             0.305631 -0.077173
                                6.035             0.399345 -0.141493
                                2.53              0.217051 -0.118019
                                0.7355            0.015894 0.273806
                                0.2905            -0.003084 0.58651
                                0.1111            0.000978 0.28543
[INPUT] 0    0    [1    /1   ]  5.584                1
[INPUT] 0    0    [1    /1   ]  0.7355               1
[INPUT] 0    0    [1    /1   ]  0.2905               1
[INPUT] 0    0    [1    /1   ]  0.1111               1
[INPUT] 0    0    [1    /1   ]  0.04145              1
[INPUT] 0    0    [1    /1   ]  0.0155               1
[INPUT] 1    0    [1    /1   ]  54.382               1
[INPUT] 1    0    [1    /1   ]  18.057               1
[INPUT] 1    0    [1    /1   ]  5.996                1
[INPUT] 1    0    [1    /1   ]  0.8132               1
[INPUT] 1    0    [6    /1   ]  34.51             0.005378
                                7.915             0.036132
                                2.368             0.142493
                                0.8132            0.34215
                                0.289             0.463864
                                0.1007            0.250028
[INPUT] 1    0    [1    /1   ]  0.289                1
[INPUT] 1    0    [1    /1   ]  0.1007               1
[INPUT] 1    0    [1    /1   ]  0.03218              1
[INPUT] 1    0    [1    /1   ]  0.0103               1
[INPUT] 2    0    [1    /1   ]  22.804               1
[INPUT] 2    0    [1    /1   ]  5.888                1
[INPUT] 2    0    [1    /1   ]  1.848                1
[INPUT] 2    0    [1    /1   ]  0.649                1
[INPUT] 2    0    [1    /1   ]  0.228                1
[INPUT] 2    0    [1    /1   ]  0.0766               1
[INPUT] 2    0    [1    /1   ]  0.0257               1
[INPUT] 3    0    [1    /1   ]  6.116                1
[INPUT] 3    0    [1    /1   ]  1.419                1
[INPUT] 3    0    [1    /1   ]  0.485                1
[INPUT] 3    0    [1    /1   ]  0.187                1
[INPUT] 3    0    [1    /1   ]  0.0721               1
[INPUT] 4    0    [1    /1   ]  1.011                1
[INPUT] 4    0    [1    /1   ]  0.424                1
[INPUT] 4    0    [1    /1   ]  0.178                1

nuclear repulsion = 0
point group symmetry = SO3, use subgroup D2h
symmetry origin: [0. 0. 0.]
symmetry axis x: [1. 0. 0.]
symmetry axis y: [0. 1. 0.]
symmetry axis z: [0. 0. 1.]
num. orbitals of irrep Ag = 33
num. orbitals of irrep B1g = 13
num. orbitals of irrep B2g = 13
num. orbitals of irrep B3g = 13
num. orbitals of irrep Au = 5
num. orbitals of irrep B1u = 19
num. orbitals of irrep B2u = 19
num. orbitals of irrep B3u = 19
number of shells = 33
number of NR pGTOs = 159
number of NR cGTOs = 134
basis = {'C': [[0, [40.881, 1.0]], [0, [15.109, 1.0]], [0, [33980.0, 9.1e-05, -1.9e-05], [5089.0, 0.000704, -0.000151], [1157.0, 0.003693, -0.000785], [326.6, 0.01536, -0.003324], [106.1, 0.052929, -0.011512], [38.11, 0.147043, -0.03416], [14.75, 0.305631, -0.077173], [6.035, 0.399345, -0.141493], [2.53, 0.217051, -0.118019], [0.7355, 0.015894, 0.273806], [0.2905, -0.003084, 0.58651], [0.1111, 0.000978, 0.28543]], [0, [5.584, 1.0]], [0, [0.7355, 1.0]], [0, [0.2905, 1.0]], [0, [0.1111, 1.0]], [0, [0.04145, 1.0]], [0, [0.0155, 1.0]], [1, [54.382, 1.0]], [1, [18.057, 1.0]], [1, [5.996, 1.0]], [1, [0.8132, 1.0]], [1, [34.51, 0.005378], [7.915, 0.036132], [2.368, 0.142493], [0.8132, 0.34215], [0.289, 0.463864], [0.1007, 0.250028]], [1, [0.289, 1.0]], [1, [0.1007, 1.0]], [1, [0.03218, 1.0]], [1, [0.0103, 1.0]], [2, [22.804, 1.0]], [2, [5.888, 1.0]], [2, [1.848, 1.0]], [2, [0.649, 1.0]], [2, [0.228, 1.0]], [2, [0.0766, 1.0]], [2, [0.0257, 1.0]], [3, [6.116, 1.0]], [3, [1.419, 1.0]], [3, [0.485, 1.0]], [3, [0.187, 1.0]], [3, [0.0721, 1.0]], [4, [1.011, 1.0]], [4, [0.424, 1.0]], [4, [0.178, 1.0]]]}
ecp = {}
bas 0, expnt(s) = [40.881]
bas 1, expnt(s) = [15.109]
bas 2, expnt(s) = [3.398e+04 5.089e+03 1.157e+03 3.266e+02 1.061e+02 3.811e+01 1.475e+01
 6.035e+00 2.530e+00 7.355e-01 2.905e-01 1.111e-01]
bas 3, expnt(s) = [5.584]
bas 4, expnt(s) = [0.7355]
bas 5, expnt(s) = [0.2905]
bas 6, expnt(s) = [0.1111]
bas 7, expnt(s) = [0.04145]
bas 8, expnt(s) = [0.0155]
bas 9, expnt(s) = [54.382]
bas 10, expnt(s) = [18.057]
bas 11, expnt(s) = [5.996]
bas 12, expnt(s) = [0.8132]
bas 13, expnt(s) = [34.51    7.915   2.368   0.8132  0.289   0.1007]
bas 14, expnt(s) = [0.289]
bas 15, expnt(s) = [0.1007]
bas 16, expnt(s) = [0.03218]
bas 17, expnt(s) = [0.0103]
bas 18, expnt(s) = [22.804]
bas 19, expnt(s) = [5.888]
bas 20, expnt(s) = [1.848]
bas 21, expnt(s) = [0.649]
bas 22, expnt(s) = [0.228]
bas 23, expnt(s) = [0.0766]
bas 24, expnt(s) = [0.0257]
bas 25, expnt(s) = [6.116]
bas 26, expnt(s) = [1.419]
bas 27, expnt(s) = [0.485]
bas 28, expnt(s) = [0.187]
bas 29, expnt(s) = [0.0721]
bas 30, expnt(s) = [1.011]
bas 31, expnt(s) = [0.424]
bas 32, expnt(s) = [0.178]
CPU time:         1.39
arg.atm = [[ 6 20  1 23  0  0]]
arg.bas = [[  0   0   1   1   0  24  25   0]
 [  0   0   1   1   0  26  27   0]
 [  0   0  12   2   0  28  40   0]
 [  0   0   1   1   0  64  65   0]
 [  0   0   1   1   0  66  67   0]
 [  0   0   1   1   0  68  69   0]
 [  0   0   1   1   0  70  71   0]
 [  0   0   1   1   0  72  73   0]
 [  0   0   1   1   0  74  75   0]
 [  0   1   1   1   0  76  77   0]
 [  0   1   1   1   0  78  79   0]
 [  0   1   1   1   0  80  81   0]
 [  0   1   1   1   0  82  83   0]
 [  0   1   6   1   0  84  90   0]
 [  0   1   1   1   0  96  97   0]
 [  0   1   1   1   0  98  99   0]
 [  0   1   1   1   0 100 101   0]
 [  0   1   1   1   0 102 103   0]
 [  0   2   1   1   0 104 105   0]
 [  0   2   1   1   0 106 107   0]
 [  0   2   1   1   0 108 109   0]
 [  0   2   1   1   0 110 111   0]
 [  0   2   1   1   0 112 113   0]
 [  0   2   1   1   0 114 115   0]
 [  0   2   1   1   0 116 117   0]
 [  0   3   1   1   0 118 119   0]
 [  0   3   1   1   0 120 121   0]
 [  0   3   1   1   0 122 123   0]
 [  0   3   1   1   0 124 125   0]
 [  0   3   1   1   0 126 127   0]
 [  0   4   1   1   0 128 129   0]
 [  0   4   1   1   0 130 131   0]
 [  0   4   1   1   0 132 133   0]]
arg.env = [ 0.00000000e+00  0.00000000e+00  0.00000000e+00  0.00000000e+00
  0.00000000e+00  0.00000000e+00  0.00000000e+00  0.00000000e+00
  0.00000000e+00  0.00000000e+00  0.00000000e+00  0.00000000e+00
  0.00000000e+00  0.00000000e+00  0.00000000e+00  0.00000000e+00
  0.00000000e+00  0.00000000e+00  0.00000000e+00  0.00000000e+00
  0.00000000e+00  0.00000000e+00  0.00000000e+00  0.00000000e+00
  4.08810000e+01  4.08466230e+01  1.51090000e+01  1.93616255e+01
  3.39800000e+04  5.08900000e+03  1.15700000e+03  3.26600000e+02
  1.06100000e+02  3.81100000e+01  1.47500000e+01  6.03500000e+00
  2.53000000e+00  7.35500000e-01  2.90500000e-01  1.11100000e-01
  5.75405620e-01  1.07167271e+00  1.85094921e+00  2.98138819e+00
  4.42074437e+00  5.69821383e+00  5.81174558e+00  3.88482431e+00
  1.10006249e+00  3.18922671e-02 -3.08311091e-03  4.75488015e-04
 -1.20139513e-01 -2.29861386e-01 -3.93445345e-01 -6.45190384e-01
 -9.61506123e-01 -1.32376779e+00 -1.46748657e+00 -1.37644114e+00
 -5.98145799e-01  5.49407652e-01  5.86340319e-01  1.38771377e-01
  5.58400000e+00  9.17749341e+00  7.35500000e-01  2.00655945e+00
  2.90500000e-01  9.99711359e-01  1.11100000e-01  4.86183895e-01
  4.14500000e-02  2.32091067e-01  1.55000000e-02  1.10984875e-01
  5.43820000e+01  4.30827446e+02  1.80570000e+01  1.08590389e+02
  5.99600000e+00  2.73723083e+01  8.13200000e-01  2.25284392e+00
  3.45100000e+01  7.91500000e+00  2.36800000e+00  8.13200000e-01
  2.89000000e-01  1.00700000e-01  1.31230920e+00  1.39939342e+00
  1.22111012e+00  7.70810166e-01  2.86745855e-01  4.13770632e-02
  2.89000000e-01  6.18168251e-01  1.00700000e-01  1.65489800e-01
  3.21800000e-02  3.97618829e-02  1.03000000e-02  9.57262230e-03
  2.28040000e+01  6.20938649e+02  5.88800000e+00  5.80728364e+01
  1.84800000e+00  7.64289385e+00  6.49000000e-01  1.22449666e+00
  2.28000000e-01  1.96297771e-01  7.66000000e-02  2.91024621e-02
  2.57000000e-02  4.30439732e-03  6.11600000e+00  1.16027834e+02
  1.41900000e+00  4.33481684e+00  4.85000000e-01  3.87194584e-01
  1.87000000e-01  4.53580083e-02  7.21000000e-02  5.31330452e-03
  1.01100000e+00  1.35514192e+00  4.24000000e-01  1.24215333e-01
  1.78000000e-01  1.14175812e-02]
ecpbas  = []


******** <class 'pyscf.scf.uhf_symm.SymAdaptedUHF'> ********
method = SymAdaptedUHF
initial guess = atom
damping factor = 0
level_shift factor = 0
DIIS = <class 'pyscf.scf.diis.CDIIS'>
diis_start_cycle = 1
diis_space = 8
diis_damp = 0
SCF conv_tol = 1e-13
SCF conv_tol_grad = None
SCF ddm_tol = 1e-12
SCF max_cycles = 9999
direct_scf = False
chkfile to save SCF result = out.chk
max_memory 32000 MB (current use 123 MB)
number electrons alpha = 4  beta = 2
irrep_nelec {'Ag': 4, 'B3u': 1, 'B2u': 1}
Freeze 6 electrons in irreps ['Ag', 'B3u', 'B2u']
    0 free electrons in irreps B1g B2g B3g Au B1u
cond(S) = 109713.46956440502

WARN: Singularity detected in overlap matrix (condition number = 1.1e+05). SCF may be inaccurate and hard to converge.

Set gradient conv threshold to 3.16228e-07
Spherically averaged atomic HF for {'C'}


******** <class '__main__.CustomAtomSphAverageRHF'> ********
method = CustomAtomSphAverageRHF
initial guess = minao
damping factor = 0
level_shift factor = 0
DIIS = <class 'pyscf.scf.diis.CDIIS'>
diis_start_cycle = 1
diis_space = 8
diis_damp = 0
SCF conv_tol = 1e-09
SCF conv_tol_grad = None
SCF ddm_tol = 1e-10
SCF max_cycles = 9999
direct_scf = False
chkfile to save SCF result = /tmp/tmp9526sbkh
max_memory 32000 MB (current use 125 MB)
atom = C
Set gradient conv threshold to 3.16228e-05
Initial guess from minao.
Nelec from initial guess = 5.99995599241204
E1 = -50.7547386414266  E_coul = 13.468704173294261
init E= -37.2860344681323
l = 0  e_0 = -11.2261825
l = 0  e_1 = -0.672997468
l = 0  e_2 = 0.0260045511
l = 0  e_3 = 0.146644571
l = 0  e_4 = 0.580476413
l = 0  e_5 = 2.09780137
l = 0  e_6 = 7.84522734
l = 0  e_7 = 27.3852748
l = 0  e_8 = 91.7435223
l = 0  e_9 = 381.311316
l = 1  e_0 = -0.0484068634
l = 1  e_1 = 0.0257082079
l = 1  e_2 = 0.126821273
l = 1  e_3 = 0.494054211
l = 1  e_4 = 1.63829511
l = 1  e_5 = 5.10287675
l = 1  e_6 = 15.6014394
l = 1  e_7 = 50.0655314
l = 1  e_8 = 167.361752
l = 2  e_0 = 0.0835663655
l = 2  e_1 = 0.29713928
l = 2  e_2 = 0.847137313
l = 2  e_3 = 2.28509681
l = 2  e_4 = 6.41357023
l = 2  e_5 = 20.2980492
l = 2  e_6 = 79.0152708
l = 3  e_0 = 0.300960473
l = 3  e_1 = 0.921738024
l = 3  e_2 = 2.4180059
l = 3  e_3 = 6.59187834
l = 3  e_4 = 25.4557952
l = 4  e_0 = 0.908962385
l = 4  e_1 = 2.51298556
l = 4  e_2 = 6.22988002
    CPU time for initialize scf      1.26 sec, wall time      0.43 sec
l = 0  e_0 = -11.2261825
l = 0  e_1 = -0.672997468
l = 0  e_2 = 0.0260045511
l = 0  e_3 = 0.146644571
l = 0  e_4 = 0.580476413
l = 0  e_5 = 2.09780137
l = 0  e_6 = 7.84522734
l = 0  e_7 = 27.3852748
l = 0  e_8 = 91.7435223
l = 0  e_9 = 381.311316
l = 1  e_0 = -0.0484068634
l = 1  e_1 = 0.0257082079
l = 1  e_2 = 0.126821273
l = 1  e_3 = 0.494054211
l = 1  e_4 = 1.63829511
l = 1  e_5 = 5.10287675
l = 1  e_6 = 15.6014394
l = 1  e_7 = 50.0655314
l = 1  e_8 = 167.361752
l = 2  e_0 = 0.0835663655
l = 2  e_1 = 0.29713928
l = 2  e_2 = 0.847137313
l = 2  e_3 = 2.28509681
l = 2  e_4 = 6.41357023
l = 2  e_5 = 20.2980492
l = 2  e_6 = 79.0152708
l = 3  e_0 = 0.300960473
l = 3  e_1 = 0.921738024
l = 3  e_2 = 2.4180059
l = 3  e_3 = 6.59187834
l = 3  e_4 = 25.4557952
l = 4  e_0 = 0.908962385
l = 4  e_1 = 2.51298556
l = 4  e_2 = 6.22988002
l = 0  occ = 2 + 0
l = 1  occ = 0 + 0.6667
l = 2  occ = 0 + 0
l = 3  occ = 0 + 0
E1 = -49.2951656820717  E_coul = 11.966329779513442
cycle= 1 E= -37.3288359025583  delta_E= -0.0428  |g|=    0  |ddm|= 0.36
    CPU time for cycle= 1      0.16 sec, wall time      0.04 sec
diis-norm(errvec)=0.228701
diis-c [-0.0523042  1.       ]
l = 0  e_0 = -11.6518249
l = 0  e_1 = -0.852996065
l = 0  e_2 = 0.0203110699
l = 0  e_3 = 0.125509891
l = 0  e_4 = 0.515784402
l = 0  e_5 = 1.93112417
l = 0  e_6 = 7.54210517
l = 0  e_7 = 26.9939393
l = 0  e_8 = 91.3088162
l = 0  e_9 = 380.854471
l = 1  e_0 = -0.187852612
l = 1  e_1 = 0.0238451526
l = 1  e_2 = 0.110863462
l = 1  e_3 = 0.427890942
l = 1  e_4 = 1.4747752
l = 1  e_5 = 4.8274017
l = 1  e_6 = 15.2364026
l = 1  e_7 = 49.6452692
l = 1  e_8 = 166.914045
l = 2  e_0 = 0.0812481028
l = 2  e_1 = 0.275823422
l = 2  e_2 = 0.771374381
l = 2  e_3 = 2.12057978
l = 2  e_4 = 6.13559395
l = 2  e_5 = 19.9205312
l = 2  e_6 = 78.5823635
l = 3  e_0 = 0.294401921
l = 3  e_1 = 0.883499998
l = 3  e_2 = 2.3012334
l = 3  e_3 = 6.34747339
l = 3  e_4 = 25.0732797
l = 4  e_0 = 0.888633258
l = 4  e_1 = 2.43438845
l = 4  e_2 = 6.04135312
l = 0  occ = 2 + 0
l = 1  occ = 0 + 0.6667
l = 2  occ = 0 + 0
l = 3  occ = 0 + 0
E1 = -50.13285096758322  E_coul = 12.79275663784271
cycle= 2 E= -37.3400943297405  delta_E= -0.0113  |g|=    0  |ddm|= 0.177
    CPU time for cycle= 2      0.17 sec, wall time      0.04 sec
diis-norm(errvec)=0.103785
diis-c [-3.72409067e-04  3.09145239e-01  6.90854761e-01]
l = 0  e_0 = -11.4852539
l = 0  e_1 = -0.786384921
l = 0  e_2 = 0.0230112038
l = 0  e_3 = 0.133888501
l = 0  e_4 = 0.539860222
l = 0  e_5 = 1.99375664
l = 0  e_6 = 7.65850656
l = 0  e_7 = 27.1463273
l = 0  e_8 = 91.4808524
l = 0  e_9 = 381.038448
l = 1  e_0 = -0.132888177
l = 1  e_1 = 0.0247022266
l = 1  e_2 = 0.117996995
l = 1  e_3 = 0.454846821
l = 1  e_4 = 1.53833982
l = 1  e_5 = 4.93415987
l = 1  e_6 = 15.3780777
l = 1  e_7 = 49.8098916
l = 1  e_8 = 167.092455
l = 2  e_0 = 0.0823741085
l = 2  e_1 = 0.284684005
l = 2  e_2 = 0.801270857
l = 2  e_3 = 2.18442899
l = 2  e_4 = 6.24302594
l = 2  e_5 = 20.0670066
l = 2  e_6 = 78.7525016
l = 3  e_0 = 0.297404536
l = 3  e_1 = 0.899044656
l = 3  e_2 = 2.34676155
l = 3  e_3 = 6.44183616
l = 3  e_4 = 25.2214211
l = 4  e_0 = 0.897322961
l = 4  e_1 = 2.46540547
l = 4  e_2 = 6.11417059
l = 0  occ = 2 + 0
l = 1  occ = 0 + 0.6667
l = 2  occ = 0 + 0
l = 3  occ = 0 + 0
E1 = -49.85941326657767  E_coul = 12.515546136520763
cycle= 3 E= -37.3438671300569  delta_E= -0.00377  |g|=    0  |ddm|= 0.0737
    CPU time for cycle= 3      0.16 sec, wall time      0.04 sec
diis-norm(errvec)=0.0068838
diis-c [-4.75390820e-06 -5.81777956e-02 -6.19400787e-02  1.12011787e+00]
l = 0  e_0 = -11.4873545
l = 0  e_1 = -0.78674801
l = 0  e_2 = 0.02332754
l = 0  e_3 = 0.134317165
l = 0  e_4 = 0.54049714
l = 0  e_5 = 1.99429587
l = 0  e_6 = 7.65795419
l = 0  e_7 = 27.1446858
l = 0  e_8 = 91.4788326
l = 0  e_9 = 381.036651
l = 1  e_0 = -0.132483281
l = 1  e_1 = 0.0248066373
l = 1  e_2 = 0.118534758
l = 1  e_3 = 0.45588109
l = 1  e_4 = 1.53927171
l = 1  e_5 = 4.93412423
l = 1  e_6 = 15.3768241
l = 1  e_7 = 49.8078806
l = 1  e_8 = 167.090424
l = 2  e_0 = 0.0825799675
l = 2  e_1 = 0.285354858
l = 2  e_2 = 0.802383841
l = 2  e_3 = 2.1854861
l = 2  e_4 = 6.24307629
l = 2  e_5 = 20.0655902
l = 2  e_6 = 78.7503228
l = 3  e_0 = 0.297880897
l = 3  e_1 = 0.900184408
l = 3  e_2 = 2.34815406
l = 3  e_3 = 6.44235564
l = 3  e_4 = 25.2199416
l = 4  e_0 = 0.89831765
l = 4  e_1 = 2.46693832
l = 4  e_2 = 6.11527449
l = 0  occ = 2 + 0
l = 1  occ = 0 + 0.6667
l = 2  occ = 0 + 0
l = 3  occ = 0 + 0
E1 = -49.863013955263135  E_coul = 12.519139082782262
cycle= 4 E= -37.3438748724809  delta_E= -7.74e-06  |g|=    0  |ddm|= 0.00378
    CPU time for cycle= 4      0.16 sec, wall time      0.04 sec
diis-norm(errvec)=0.00206865
diis-c [-1.20741323e-07 -1.03121204e-02 -3.69481481e-03 -1.71847393e-02
  1.03119167e+00]
l = 0  e_0 = -11.4890274
l = 0  e_1 = -0.787787021
l = 0  e_2 = 0.0232731519
l = 0  e_3 = 0.134134959
l = 0  e_4 = 0.540038158
l = 0  e_5 = 1.99333222
l = 0  e_6 = 7.65652001
l = 0  e_7 = 27.1430667
l = 0  e_8 = 91.4772257
l = 0  e_9 = 381.035166
l = 1  e_0 = -0.133149605
l = 1  e_1 = 0.0247891227
l = 1  e_2 = 0.118407278
l = 1  e_3 = 0.455445672
l = 1  e_4 = 1.53838219
l = 1  e_5 = 4.93281299
l = 1  e_6 = 15.3752517
l = 1  e_7 = 49.8062336
l = 1  e_8 = 167.088851
l = 2  e_0 = 0.0825560517
l = 2  e_1 = 0.285174667
l = 2  e_2 = 0.801876982
l = 2  e_3 = 2.184542
l = 2  e_4 = 6.24171773
l = 2  e_5 = 20.0639726
l = 2  e_6 = 78.748666
l = 3  e_0 = 0.297811823
l = 3  e_1 = 0.899866107
l = 3  e_2 = 2.34739094
l = 3  e_3 = 6.44108395
l = 3  e_4 = 25.2182941
l = 4  e_0 = 0.89812207
l = 4  e_1 = 2.46635015
l = 4  e_2 = 6.11418609
l = 0  occ = 2 + 0
l = 1  occ = 0 + 0.6667
l = 2  occ = 0 + 0
l = 3  occ = 0 + 0
E1 = -49.86694480176923  E_coul = 12.523068924038073
cycle= 5 E= -37.3438758777312  delta_E= -1.01e-06  |g|=    0  |ddm|= 0.00241
    CPU time for cycle= 5      0.17 sec, wall time      0.04 sec
diis-norm(errvec)=0.000177647
diis-c [-1.62890966e-09  4.11376285e-04 -1.01523669e-03  1.47815702e-02
 -2.37321497e-01  1.22314379e+00]
l = 0  e_0 = -11.489148
l = 0  e_1 = -0.787888292
l = 0  e_2 = 0.0232608763
l = 0  e_3 = 0.134107612
l = 0  e_4 = 0.53998051
l = 0  e_5 = 1.99323572
l = 0  e_6 = 7.65640571
l = 0  e_7 = 27.1429469
l = 0  e_8 = 91.4771025
l = 0  e_9 = 381.035041
l = 1  e_0 = -0.133208288
l = 1  e_1 = 0.0247857824
l = 1  e_2 = 0.11838722
l = 1  e_3 = 0.455391062
l = 1  e_4 = 1.53829358
l = 1  e_5 = 4.93270337
l = 1  e_6 = 15.3751337
l = 1  e_7 = 49.8061116
l = 1  e_8 = 167.088726
l = 2  e_0 = 0.0825493964
l = 2  e_1 = 0.285144981
l = 2  e_2 = 0.801814069
l = 2  e_3 = 2.1844467
l = 2  e_4 = 6.24160711
l = 2  e_5 = 20.0638547
l = 2  e_6 = 78.7485429
l = 3  e_0 = 0.297795342
l = 3  e_1 = 0.899815644
l = 3  e_2 = 2.34730307
l = 3  e_3 = 6.44097455
l = 3  e_4 = 25.2181763
l = 4  e_0 = 0.898083783
l = 4  e_1 = 2.46627134
l = 4  e_2 = 6.11408092
l = 0  occ = 2 + 0
l = 1  occ = 0 + 0.6667
l = 2  occ = 0 + 0
l = 3  occ = 0 + 0
E1 = -49.867233558481345  E_coul = 12.523357672013791
cycle= 6 E= -37.3438758864676  delta_E= -8.74e-09  |g|=    0  |ddm|= 0.000301
    CPU time for cycle= 6      0.17 sec, wall time      0.04 sec
diis-norm(errvec)=9.34425e-06
diis-c [-6.37746672e-12 -3.33825462e-05  9.46120085e-05 -1.61957157e-03
  2.52218732e-02 -1.92843346e-01  1.16917981e+00]
l = 0  e_0 = -11.4891524
l = 0  e_1 = -0.78789306
l = 0  e_2 = 0.0232602359
l = 0  e_3 = 0.134106525
l = 0  e_4 = 0.539978384
l = 0  e_5 = 1.99323228
l = 0  e_6 = 7.65640142
l = 0  e_7 = 27.1429425
l = 0  e_8 = 91.4770988
l = 0  e_9 = 381.035039
l = 1  e_0 = -0.133210644
l = 1  e_1 = 0.0247857597
l = 1  e_2 = 0.118386604
l = 1  e_3 = 0.455389032
l = 1  e_4 = 1.53829035
l = 1  e_5 = 4.93269926
l = 1  e_6 = 15.3751292
l = 1  e_7 = 49.8061074
l = 1  e_8 = 167.088723
l = 2  e_0 = 0.0825490566
l = 2  e_1 = 0.285143783
l = 2  e_2 = 0.801811772
l = 2  e_3 = 2.18444323
l = 2  e_4 = 6.24160296
l = 2  e_5 = 20.0638501
l = 2  e_6 = 78.7485388
l = 3  e_0 = 0.297794584
l = 3  e_1 = 0.899813664
l = 3  e_2 = 2.34729992
l = 3  e_3 = 6.44097057
l = 3  e_4 = 25.2181715
l = 4  e_0 = 0.898082133
l = 4  e_1 = 2.46626844
l = 4  e_2 = 6.11407725
l = 0  occ = 2 + 0
l = 1  occ = 0 + 0.6667
l = 2  occ = 0 + 0
l = 3  occ = 0 + 0
E1 = -49.86723815139599  E_coul = 12.52336226488254
cycle= 7 E= -37.3438758865134  delta_E= -4.59e-11  |g|=    0  |ddm|= 1.6e-05
    CPU time for cycle= 7      0.16 sec, wall time      0.04 sec
diis-norm(errvec)=3.16083e-07
diis-c [-5.91026158e-15 -3.13671908e-07 -4.61380879e-06  9.41233878e-05
 -1.03126561e-03  8.68446605e-03 -8.18034286e-02  1.07406103e+00]
l = 0  e_0 = -11.4891526
l = 0  e_1 = -0.787893248
l = 0  e_2 = 0.0232602004
l = 0  e_3 = 0.13410647
l = 0  e_4 = 0.539978266
l = 0  e_5 = 1.9932321
l = 0  e_6 = 7.65640121
l = 0  e_7 = 27.1429423
l = 0  e_8 = 91.4770986
l = 0  e_9 = 381.035038
l = 1  e_0 = -0.133210781
l = 1  e_1 = 0.0247857499
l = 1  e_2 = 0.118386559
l = 1  e_3 = 0.455388922
l = 1  e_4 = 1.53829018
l = 1  e_5 = 4.93269905
l = 1  e_6 = 15.375129
l = 1  e_7 = 49.8061072
l = 1  e_8 = 167.088723
l = 2  e_0 = 0.0825490349
l = 2  e_1 = 0.285143715
l = 2  e_2 = 0.801811636
l = 2  e_3 = 2.18444304
l = 2  e_4 = 6.24160274
l = 2  e_5 = 20.0638499
l = 2  e_6 = 78.7485386
l = 3  e_0 = 0.297794538
l = 3  e_1 = 0.89981355
l = 3  e_2 = 2.34729975
l = 3  e_3 = 6.44097036
l = 3  e_4 = 25.2181713
l = 4  e_0 = 0.898082039
l = 4  e_1 = 2.46626828
l = 4  e_2 = 6.11407704
l = 0  occ = 2 + 0
l = 1  occ = 0 + 0.6667
l = 2  occ = 0 + 0
l = 3  occ = 0 + 0
E1 = -49.86723856173859  E_coul = 12.523362675225217
cycle= 8 E= -37.3438758865134  delta_E= 7.11e-14  |g|=    0  |ddm|= 9.88e-07
    CPU time for cycle= 8      0.16 sec, wall time      0.04 sec
diis-norm(errvec)=8.68904e-09
Linear dependence found in DIIS error vectors.
diis-c [-1.59585818e-15 -1.66575179e-07 -2.24233552e-06  4.49454953e-05
 -4.92237132e-04  4.15206229e-03 -3.86447582e-02  4.97532356e-01
  5.37410041e-01]
l = 0  e_0 = -11.4891526
l = 0  e_1 = -0.787893246
l = 0  e_2 = 0.0232602005
l = 0  e_3 = 0.134106471
l = 0  e_4 = 0.539978267
l = 0  e_5 = 1.99323211
l = 0  e_6 = 7.65640122
l = 0  e_7 = 27.1429423
l = 0  e_8 = 91.4770986
l = 0  e_9 = 381.035038
l = 1  e_0 = -0.133210779
l = 1  e_1 = 0.0247857498
l = 1  e_2 = 0.118386559
l = 1  e_3 = 0.455388923
l = 1  e_4 = 1.53829018
l = 1  e_5 = 4.93269905
l = 1  e_6 = 15.375129
l = 1  e_7 = 49.8061072
l = 1  e_8 = 167.088723
l = 2  e_0 = 0.0825490349
l = 2  e_1 = 0.285143716
l = 2  e_2 = 0.801811637
l = 2  e_3 = 2.18444304
l = 2  e_4 = 6.24160274
l = 2  e_5 = 20.0638499
l = 2  e_6 = 78.7485386
l = 3  e_0 = 0.297794538
l = 3  e_1 = 0.89981355
l = 3  e_2 = 2.34729975
l = 3  e_3 = 6.44097036
l = 3  e_4 = 25.2181713
l = 4  e_0 = 0.898082039
l = 4  e_1 = 2.46626828
l = 4  e_2 = 6.11407704
l = 0  occ = 2 + 0
l = 1  occ = 0 + 0.6667
l = 2  occ = 0 + 0
l = 3  occ = 0 + 0
E1 = -49.867238561289106  E_coul = 12.523362674775663
cycle= 9 E= -37.3438758865134  delta_E= -7.11e-14  |g|=    0  |ddm|= 8.54e-09
    CPU time for cycle= 9      0.17 sec, wall time      0.04 sec
diis-norm(errvec)=4.49223e-09
Linear dependence found in DIIS error vectors.
diis-c [-7.57668430e-16  3.49935881e-01 -1.44869378e-06  2.98121159e-05
 -3.41298701e-04  2.82188658e-03 -2.57074207e-02  3.23502536e-01
  3.49760052e-01]
l = 0  e_0 = -11.4891526
l = 0  e_1 = -0.787893246
l = 0  e_2 = 0.0232602004
l = 0  e_3 = 0.13410647
l = 0  e_4 = 0.539978267
l = 0  e_5 = 1.99323211
l = 0  e_6 = 7.65640121
l = 0  e_7 = 27.1429423
l = 0  e_8 = 91.4770986
l = 0  e_9 = 381.035038
l = 1  e_0 = -0.133210779
l = 1  e_1 = 0.0247857498
l = 1  e_2 = 0.118386559
l = 1  e_3 = 0.455388922
l = 1  e_4 = 1.53829018
l = 1  e_5 = 4.93269905
l = 1  e_6 = 15.375129
l = 1  e_7 = 49.8061072
l = 1  e_8 = 167.088723
l = 2  e_0 = 0.0825490348
l = 2  e_1 = 0.285143715
l = 2  e_2 = 0.801811637
l = 2  e_3 = 2.18444304
l = 2  e_4 = 6.24160274
l = 2  e_5 = 20.0638499
l = 2  e_6 = 78.7485386
l = 3  e_0 = 0.297794538
l = 3  e_1 = 0.89981355
l = 3  e_2 = 2.34729975
l = 3  e_3 = 6.44097036
l = 3  e_4 = 25.2181713
l = 4  e_0 = 0.898082039
l = 4  e_1 = 2.46626828
l = 4  e_2 = 6.11407704
l = 0  occ = 2 + 0
l = 1  occ = 0 + 0.6667
l = 2  occ = 0 + 0
l = 3  occ = 0 + 0
E1 = -49.86723856496784  E_coul = 12.523362678454365
cycle= 10 E= -37.3438758865135  delta_E= -2.84e-14  |g|=    0  |ddm|= 3.37e-09
    CPU time for cycle= 10      0.16 sec, wall time      0.04 sec
diis-norm(errvec)=3.65659e-09
Linear dependence found in DIIS error vectors.
diis-c [-7.35958818e-16  2.56889319e-01  2.56906296e-01  8.89075538e-06
 -8.79977001e-05  9.96590432e-04 -1.40008979e-02  2.42449529e-01
  2.56838270e-01]
l = 0  e_0 = -11.4891526
l = 0  e_1 = -0.787893247
l = 0  e_2 = 0.0232602003
l = 0  e_3 = 0.13410647
l = 0  e_4 = 0.539978266
l = 0  e_5 = 1.9932321
l = 0  e_6 = 7.65640121
l = 0  e_7 = 27.1429423
l = 0  e_8 = 91.4770986
l = 0  e_9 = 381.035038
l = 1  e_0 = -0.13321078
l = 1  e_1 = 0.0247857498
l = 1  e_2 = 0.118386559
l = 1  e_3 = 0.455388921
l = 1  e_4 = 1.53829018
l = 1  e_5 = 4.93269905
l = 1  e_6 = 15.375129
l = 1  e_7 = 49.8061072
l = 1  e_8 = 167.088723
l = 2  e_0 = 0.0825490348
l = 2  e_1 = 0.285143715
l = 2  e_2 = 0.801811636
l = 2  e_3 = 2.18444304
l = 2  e_4 = 6.24160274
l = 2  e_5 = 20.0638499
l = 2  e_6 = 78.7485386
l = 3  e_0 = 0.297794538
l = 3  e_1 = 0.899813549
l = 3  e_2 = 2.34729975
l = 3  e_3 = 6.44097036
l = 3  e_4 = 25.2181713
l = 4  e_0 = 0.898082039
l = 4  e_1 = 2.46626828
l = 4  e_2 = 6.11407704
l = 0  occ = 2 + 0
l = 1  occ = 0 + 0.6667
l = 2  occ = 0 + 0
l = 3  occ = 0 + 0
E1 = -49.86723856857513  E_coul = 12.523362682061764
cycle= 11 E= -37.3438758865134  delta_E= 1.07e-13  |g|=    0  |ddm|= 5.46e-09
    CPU time for cycle= 11      0.16 sec, wall time      0.04 sec
diis-norm(errvec)=4.54592e-09
Linear dependence found in DIIS error vectors.
diis-c [-4.71072272e-17  2.49861546e-01  2.52104100e-01  2.52894986e-01
 -1.48614795e-06  3.96089695e-05 -3.05786534e-04  1.55891133e-03
  2.43848121e-01]
l = 0  e_0 = -11.4891526
l = 0  e_1 = -0.787893244
l = 0  e_2 = 0.0232602005
l = 0  e_3 = 0.134106471
l = 0  e_4 = 0.539978267
l = 0  e_5 = 1.99323211
l = 0  e_6 = 7.65640122
l = 0  e_7 = 27.1429423
l = 0  e_8 = 91.4770986
l = 0  e_9 = 381.035038
l = 1  e_0 = -0.133210778
l = 1  e_1 = 0.0247857498
l = 1  e_2 = 0.118386559
l = 1  e_3 = 0.455388923
l = 1  e_4 = 1.53829018
l = 1  e_5 = 4.93269905
l = 1  e_6 = 15.375129
l = 1  e_7 = 49.8061072
l = 1  e_8 = 167.088723
l = 2  e_0 = 0.0825490349
l = 2  e_1 = 0.285143716
l = 2  e_2 = 0.801811638
l = 2  e_3 = 2.18444304
l = 2  e_4 = 6.24160275
l = 2  e_5 = 20.0638499
l = 2  e_6 = 78.7485386
l = 3  e_0 = 0.297794538
l = 3  e_1 = 0.899813551
l = 3  e_2 = 2.34729975
l = 3  e_3 = 6.44097036
l = 3  e_4 = 25.2181713
l = 4  e_0 = 0.89808204
l = 4  e_1 = 2.46626828
l = 4  e_2 = 6.11407705
l = 0  occ = 2 + 0
l = 1  occ = 0 + 0.6667
l = 2  occ = 0 + 0
l = 3  occ = 0 + 0
E1 = -49.86723856275642  E_coul = 12.523362676242964
cycle= 12 E= -37.3438758865135  delta_E= -9.24e-14  |g|=    0  |ddm|= 5.67e-09
    CPU time for cycle= 12      0.16 sec, wall time      0.04 sec
diis-norm(errvec)=7.43565e-10
Linear dependence found in DIIS error vectors.
diis-c [ 2.72310128e-17  2.02968775e-01  2.04568800e-01  2.04838174e-01
  2.06690897e-01  1.02517733e-05  5.30412555e-04 -1.87737433e-02
  1.99166433e-01]
l = 0  e_0 = -11.4891526
l = 0  e_1 = -0.787893243
l = 0  e_2 = 0.0232602006
l = 0  e_3 = 0.134106471
l = 0  e_4 = 0.539978268
l = 0  e_5 = 1.99323211
l = 0  e_6 = 7.65640122
l = 0  e_7 = 27.1429423
l = 0  e_8 = 91.4770986
l = 0  e_9 = 381.035038
l = 1  e_0 = -0.133210777
l = 1  e_1 = 0.0247857498
l = 1  e_2 = 0.118386559
l = 1  e_3 = 0.455388923
l = 1  e_4 = 1.53829018
l = 1  e_5 = 4.93269906
l = 1  e_6 = 15.375129
l = 1  e_7 = 49.8061072
l = 1  e_8 = 167.088723
l = 2  e_0 = 0.0825490349
l = 2  e_1 = 0.285143716
l = 2  e_2 = 0.801811638
l = 2  e_3 = 2.18444304
l = 2  e_4 = 6.24160275
l = 2  e_5 = 20.0638499
l = 2  e_6 = 78.7485386
l = 3  e_0 = 0.297794538
l = 3  e_1 = 0.899813551
l = 3  e_2 = 2.34729975
l = 3  e_3 = 6.44097037
l = 3  e_4 = 25.2181713
l = 4  e_0 = 0.89808204
l = 4  e_1 = 2.46626828
l = 4  e_2 = 6.11407705
l = 0  occ = 2 + 0
l = 1  occ = 0 + 0.6667
l = 2  occ = 0 + 0
l = 3  occ = 0 + 0
E1 = -49.86723855956395  E_coul = 12.523362673050565
cycle= 13 E= -37.3438758865134  delta_E= 7.11e-14  |g|=    0  |ddm|= 2.35e-09
    CPU time for cycle= 13      0.17 sec, wall time      0.04 sec
diis-norm(errvec)=1.30865e-09
Linear dependence found in DIIS error vectors.
diis-c [ 5.70057723e-17  1.68581622e-01  1.69905142e-01  1.69999374e-01
  1.72158605e-01  1.72509876e-01  6.53565140e-04 -1.85860722e-02
  1.64777888e-01]
l = 0  e_0 = -11.4891526
l = 0  e_1 = -0.787893243
l = 0  e_2 = 0.0232602006
l = 0  e_3 = 0.134106471
l = 0  e_4 = 0.539978268
l = 0  e_5 = 1.99323211
l = 0  e_6 = 7.65640122
l = 0  e_7 = 27.1429423
l = 0  e_8 = 91.4770986
l = 0  e_9 = 381.035038
l = 1  e_0 = -0.133210777
l = 1  e_1 = 0.0247857498
l = 1  e_2 = 0.118386559
l = 1  e_3 = 0.455388923
l = 1  e_4 = 1.53829018
l = 1  e_5 = 4.93269906
l = 1  e_6 = 15.375129
l = 1  e_7 = 49.8061072
l = 1  e_8 = 167.088723
l = 2  e_0 = 0.0825490349
l = 2  e_1 = 0.285143716
l = 2  e_2 = 0.801811638
l = 2  e_3 = 2.18444304
l = 2  e_4 = 6.24160275
l = 2  e_5 = 20.0638499
l = 2  e_6 = 78.7485386
l = 3  e_0 = 0.297794538
l = 3  e_1 = 0.899813551
l = 3  e_2 = 2.34729975
l = 3  e_3 = 6.44097037
l = 3  e_4 = 25.2181713
l = 4  e_0 = 0.89808204
l = 4  e_1 = 2.46626828
l = 4  e_2 = 6.11407705
l = 0  occ = 2 + 0
l = 1  occ = 0 + 0.6667
l = 2  occ = 0 + 0
l = 3  occ = 0 + 0
E1 = -49.86723855886671  E_coul = 12.523362672353318
cycle= 14 E= -37.3438758865134  delta_E=    0  |g|=    0  |ddm|= 2.54e-10
    CPU time for cycle= 14      0.16 sec, wall time      0.04 sec
diis-norm(errvec)=1.58644e-09
Linear dependence found in DIIS error vectors.
diis-c [ 2.83134908e-16  1.42792089e-01  1.43438335e-01  1.43941694e-01
  1.43407970e-01  1.43020127e-01  1.42926868e-01 -1.91322967e-03
  1.42386146e-01]
l = 0  e_0 = -11.4891526
l = 0  e_1 = -0.787893244
l = 0  e_2 = 0.0232602005
l = 0  e_3 = 0.134106471
l = 0  e_4 = 0.539978267
l = 0  e_5 = 1.99323211
l = 0  e_6 = 7.65640122
l = 0  e_7 = 27.1429423
l = 0  e_8 = 91.4770986
l = 0  e_9 = 381.035038
l = 1  e_0 = -0.133210777
l = 1  e_1 = 0.0247857498
l = 1  e_2 = 0.118386559
l = 1  e_3 = 0.455388923
l = 1  e_4 = 1.53829018
l = 1  e_5 = 4.93269906
l = 1  e_6 = 15.375129
l = 1  e_7 = 49.8061072
l = 1  e_8 = 167.088723
l = 2  e_0 = 0.0825490349
l = 2  e_1 = 0.285143716
l = 2  e_2 = 0.801811638
l = 2  e_3 = 2.18444304
l = 2  e_4 = 6.24160275
l = 2  e_5 = 20.0638499
l = 2  e_6 = 78.7485386
l = 3  e_0 = 0.297794538
l = 3  e_1 = 0.899813551
l = 3  e_2 = 2.34729975
l = 3  e_3 = 6.44097037
l = 3  e_4 = 25.2181713
l = 4  e_0 = 0.89808204
l = 4  e_1 = 2.46626828
l = 4  e_2 = 6.11407705
l = 0  occ = 2 + 0
l = 1  occ = 0 + 0.6667
l = 2  occ = 0 + 0
l = 3  occ = 0 + 0
E1 = -49.86723856091428  E_coul = 12.523362674400861
cycle= 15 E= -37.3438758865134  delta_E= -2.84e-14  |g|=    0  |ddm|= 2.07e-09
    CPU time for cycle= 15      0.16 sec, wall time      0.04 sec
diis-norm(errvec)=5.28448e-10
Linear dependence found in DIIS error vectors.
diis-c [-2.89052492e-16  1.25000000e-01  1.25000000e-01  1.25000000e-01
  1.25000000e-01  1.25000000e-01  1.25000000e-01  1.25000000e-01
  1.25000000e-01]
l = 0  e_0 = -11.4891526
l = 0  e_1 = -0.787893244
l = 0  e_2 = 0.0232602006
l = 0  e_3 = 0.134106471
l = 0  e_4 = 0.539978267
l = 0  e_5 = 1.99323211
l = 0  e_6 = 7.65640122
l = 0  e_7 = 27.1429423
l = 0  e_8 = 91.4770986
l = 0  e_9 = 381.035038
l = 1  e_0 = -0.133210778
l = 1  e_1 = 0.0247857498
l = 1  e_2 = 0.118386559
l = 1  e_3 = 0.455388923
l = 1  e_4 = 1.53829018
l = 1  e_5 = 4.93269905
l = 1  e_6 = 15.375129
l = 1  e_7 = 49.8061072
l = 1  e_8 = 167.088723
l = 2  e_0 = 0.0825490349
l = 2  e_1 = 0.285143716
l = 2  e_2 = 0.801811638
l = 2  e_3 = 2.18444304
l = 2  e_4 = 6.24160275
l = 2  e_5 = 20.0638499
l = 2  e_6 = 78.7485386
l = 3  e_0 = 0.297794538
l = 3  e_1 = 0.899813551
l = 3  e_2 = 2.34729975
l = 3  e_3 = 6.44097037
l = 3  e_4 = 25.2181713
l = 4  e_0 = 0.89808204
l = 4  e_1 = 2.46626828
l = 4  e_2 = 6.11407705
l = 0  occ = 2 + 0
l = 1  occ = 0 + 0.6667
l = 2  occ = 0 + 0
l = 3  occ = 0 + 0
E1 = -49.86723856150782  E_coul = 12.523362674994347
cycle= 16 E= -37.3438758865135  delta_E= -5.68e-14  |g|=    0  |ddm|= 2.59e-10
    CPU time for cycle= 16      0.17 sec, wall time      0.04 sec
diis-norm(errvec)=3.93418e-10
Linear dependence found in DIIS error vectors.
diis-c [-2.89052492e-16  1.25000000e-01  1.25000000e-01  1.25000000e-01
  1.25000000e-01  1.25000000e-01  1.25000000e-01  1.25000000e-01
  1.25000000e-01]
l = 0  e_0 = -11.4891526
l = 0  e_1 = -0.787893244
l = 0  e_2 = 0.0232602006
l = 0  e_3 = 0.134106471
l = 0  e_4 = 0.539978267
l = 0  e_5 = 1.99323211
l = 0  e_6 = 7.65640122
l = 0  e_7 = 27.1429423
l = 0  e_8 = 91.4770986
l = 0  e_9 = 381.035038
l = 1  e_0 = -0.133210778
l = 1  e_1 = 0.0247857498
l = 1  e_2 = 0.118386559
l = 1  e_3 = 0.455388923
l = 1  e_4 = 1.53829018
l = 1  e_5 = 4.93269905
l = 1  e_6 = 15.375129
l = 1  e_7 = 49.8061072
l = 1  e_8 = 167.088723
l = 2  e_0 = 0.0825490349
l = 2  e_1 = 0.285143716
l = 2  e_2 = 0.801811638
l = 2  e_3 = 2.18444304
l = 2  e_4 = 6.24160275
l = 2  e_5 = 20.0638499
l = 2  e_6 = 78.7485386
l = 3  e_0 = 0.297794538
l = 3  e_1 = 0.899813551
l = 3  e_2 = 2.34729975
l = 3  e_3 = 6.44097037
l = 3  e_4 = 25.2181713
l = 4  e_0 = 0.89808204
l = 4  e_1 = 2.46626828
l = 4  e_2 = 6.11407705
l = 0  occ = 2 + 0
l = 1  occ = 0 + 0.6667
l = 2  occ = 0 + 0
l = 3  occ = 0 + 0
E1 = -49.867238561570296  E_coul = 12.52336267505693
cycle= 17 E= -37.3438758865134  delta_E= 1.07e-13  |g|=    0  |ddm|= 2.6e-10
    CPU time for cycle= 17      0.16 sec, wall time      0.04 sec
diis-norm(errvec)=2.51392e-10
Linear dependence found in DIIS error vectors.
diis-c [-2.89052492e-16  1.25000000e-01  1.25000000e-01  1.25000000e-01
  1.25000000e-01  1.25000000e-01  1.25000000e-01  1.25000000e-01
  1.25000000e-01]
l = 0  e_0 = -11.4891526
l = 0  e_1 = -0.787893244
l = 0  e_2 = 0.0232602006
l = 0  e_3 = 0.134106471
l = 0  e_4 = 0.539978267
l = 0  e_5 = 1.99323211
l = 0  e_6 = 7.65640122
l = 0  e_7 = 27.1429423
l = 0  e_8 = 91.4770986
l = 0  e_9 = 381.035038
l = 1  e_0 = -0.133210778
l = 1  e_1 = 0.0247857498
l = 1  e_2 = 0.118386559
l = 1  e_3 = 0.455388923
l = 1  e_4 = 1.53829018
l = 1  e_5 = 4.93269905
l = 1  e_6 = 15.375129
l = 1  e_7 = 49.8061072
l = 1  e_8 = 167.088723
l = 2  e_0 = 0.0825490349
l = 2  e_1 = 0.285143716
l = 2  e_2 = 0.801811638
l = 2  e_3 = 2.18444304
l = 2  e_4 = 6.24160275
l = 2  e_5 = 20.0638499
l = 2  e_6 = 78.7485386
l = 3  e_0 = 0.297794538
l = 3  e_1 = 0.899813551
l = 3  e_2 = 2.34729975
l = 3  e_3 = 6.44097037
l = 3  e_4 = 25.2181713
l = 4  e_0 = 0.89808204
l = 4  e_1 = 2.46626828
l = 4  e_2 = 6.11407705
l = 0  occ = 2 + 0
l = 1  occ = 0 + 0.6667
l = 2  occ = 0 + 0
l = 3  occ = 0 + 0
E1 = -49.86723856157268  E_coul = 12.523362675059161
cycle= 18 E= -37.3438758865135  delta_E= -1.49e-13  |g|=    0  |ddm|= 1.35e-10
    CPU time for cycle= 18      0.17 sec, wall time      0.04 sec
diis-norm(errvec)=1.85854e-10
Linear dependence found in DIIS error vectors.
diis-c [-2.89052492e-16  1.25000000e-01  1.25000000e-01  1.25000000e-01
  1.25000000e-01  1.25000000e-01  1.25000000e-01  1.25000000e-01
  1.25000000e-01]
l = 0  e_0 = -11.4891526
l = 0  e_1 = -0.787893244
l = 0  e_2 = 0.0232602006
l = 0  e_3 = 0.134106471
l = 0  e_4 = 0.539978267
l = 0  e_5 = 1.99323211
l = 0  e_6 = 7.65640122
l = 0  e_7 = 27.1429423
l = 0  e_8 = 91.4770986
l = 0  e_9 = 381.035038
l = 1  e_0 = -0.133210778
l = 1  e_1 = 0.0247857498
l = 1  e_2 = 0.118386559
l = 1  e_3 = 0.455388923
l = 1  e_4 = 1.53829018
l = 1  e_5 = 4.93269905
l = 1  e_6 = 15.375129
l = 1  e_7 = 49.8061072
l = 1  e_8 = 167.088723
l = 2  e_0 = 0.0825490349
l = 2  e_1 = 0.285143716
l = 2  e_2 = 0.801811638
l = 2  e_3 = 2.18444304
l = 2  e_4 = 6.24160275
l = 2  e_5 = 20.0638499
l = 2  e_6 = 78.7485386
l = 3  e_0 = 0.297794538
l = 3  e_1 = 0.899813551
l = 3  e_2 = 2.34729975
l = 3  e_3 = 6.44097036
l = 3  e_4 = 25.2181713
l = 4  e_0 = 0.89808204
l = 4  e_1 = 2.46626828
l = 4  e_2 = 6.11407705
l = 0  occ = 2 + 0
l = 1  occ = 0 + 0.6667
l = 2  occ = 0 + 0
l = 3  occ = 0 + 0
E1 = -49.86723856180496  E_coul = 12.523362675291416
cycle= 19 E= -37.3438758865135  delta_E= -2.84e-14  |g|=    0  |ddm|= 9.17e-11
    CPU time for cycle= 19      0.16 sec, wall time      0.04 sec
l = 0  e_0 = -11.4891526
l = 0  e_1 = -0.787893244
l = 0  e_2 = 0.0232602006
l = 0  e_3 = 0.134106471
l = 0  e_4 = 0.539978267
l = 0  e_5 = 1.99323211
l = 0  e_6 = 7.65640122
l = 0  e_7 = 27.1429423
l = 0  e_8 = 91.4770986
l = 0  e_9 = 381.035038
l = 1  e_0 = -0.133210778
l = 1  e_1 = 0.0247857498
l = 1  e_2 = 0.118386559
l = 1  e_3 = 0.455388923
l = 1  e_4 = 1.53829018
l = 1  e_5 = 4.93269905
l = 1  e_6 = 15.375129
l = 1  e_7 = 49.8061072
l = 1  e_8 = 167.088723
l = 2  e_0 = 0.0825490349
l = 2  e_1 = 0.285143716
l = 2  e_2 = 0.801811638
l = 2  e_3 = 2.18444304
l = 2  e_4 = 6.24160275
l = 2  e_5 = 20.0638499
l = 2  e_6 = 78.7485386
l = 3  e_0 = 0.297794538
l = 3  e_1 = 0.899813551
l = 3  e_2 = 2.34729975
l = 3  e_3 = 6.44097036
l = 3  e_4 = 25.2181713
l = 4  e_0 = 0.89808204
l = 4  e_1 = 2.46626828
l = 4  e_2 = 6.11407705
l = 0  occ = 2 + 0
l = 1  occ = 0 + 0.6667
l = 2  occ = 0 + 0
l = 3  occ = 0 + 0
E1 = -49.86723856189772  E_coul = 12.52336267538434
Extra cycle  E= -37.3438758865134  delta_E= 1.63e-13  |g|=    0  |ddm|= 9.17e-11
    CPU time for scf_cycle      4.55 sec, wall time      1.26 sec
    CPU time for SCF      4.55 sec, wall time      1.26 sec
Atomic HF for atom  C  converged. SCF energy = -37.3438758865134

Atom C, E = -37.3438758865
Nelec from initial guess = (np.float64(2.9999999999999964), np.float64(2.9999999999999964))
E1 = -49.86723856189772  Ecoul = 12.523362675384341
init E= -37.3438758865134
    CPU time for initialize scf      5.91 sec, wall time      1.61 sec
alpha HOMO (B2u) = -0.133210777566656  LUMO (B1u) = -0.13321077756666
alpha irrep_nelec = [2, 0, 0, 0, 0, 0, 1, 1]
beta  irrep_nelec = [2, 0, 0, 0, 0, 0, 0, 0]
alpha-Ag nocc = 2  HOMO = -0.787893243972447  LUMO = 0.0232602005577732
   mo_energy = [-1.14891526e+01 -7.87893244e-01  2.32602006e-02  8.25490349e-02
  8.25490349e-02  1.34106471e-01  2.85143716e-01  2.85143716e-01
  5.39978267e-01  8.01811638e-01  8.01811638e-01  8.98082040e-01
  8.98082040e-01  8.98082040e-01  1.99323211e+00  2.18444304e+00
  2.18444304e+00  2.46626828e+00  2.46626828e+00  2.46626828e+00
  6.11407705e+00  6.11407705e+00  6.11407705e+00  6.24160275e+00
  6.24160275e+00  7.65640122e+00  2.00638499e+01  2.00638499e+01
  2.71429423e+01  7.87485386e+01  7.87485386e+01  9.14770986e+01
  3.81035038e+02]
alpha-B1g nocc = 0
   mo_energy = [ 0.08254903  0.28514372  0.80181164  0.89808204  0.89808204  2.18444304
  2.46626828  2.46626828  6.11407705  6.11407705  6.24160275 20.06384988
 78.74853859]
alpha-B2g nocc = 0
   mo_energy = [ 0.08254903  0.28514372  0.80181164  0.89808204  0.89808204  2.18444304
  2.46626828  2.46626828  6.11407705  6.11407705  6.24160275 20.06384988
 78.74853859]
alpha-B3g nocc = 0
   mo_energy = [ 0.08254903  0.28514372  0.80181164  0.89808204  0.89808204  2.18444304
  2.46626828  2.46626828  6.11407705  6.11407705  6.24160275 20.06384988
 78.74853859]
alpha-Au nocc = 0
   mo_energy = [ 0.29779454  0.89981355  2.34729975  6.44097036 25.21817131]
alpha-B1u nocc = 0
   mo_energy = [-1.33210778e-01  2.47857498e-02  1.18386559e-01  2.97794538e-01
  2.97794538e-01  4.55388923e-01  8.99813551e-01  8.99813551e-01
  1.53829018e+00  2.34729975e+00  2.34729975e+00  4.93269905e+00
  6.44097036e+00  6.44097036e+00  1.53751290e+01  2.52181713e+01
  2.52181713e+01  4.98061072e+01  1.67088723e+02]
alpha-B2u nocc = 1  HOMO = -0.133210777566656  LUMO = 0.0247857498013335

WARN: alpha-B2u HOMO -0.133210777566656 > system LUMO -0.13321077756666

   mo_energy = [-1.33210778e-01  2.47857498e-02  1.18386559e-01  2.97794538e-01
  2.97794538e-01  4.55388923e-01  8.99813551e-01  8.99813551e-01
  1.53829018e+00  2.34729975e+00  2.34729975e+00  4.93269905e+00
  6.44097036e+00  6.44097036e+00  1.53751290e+01  2.52181713e+01
  2.52181713e+01  4.98061072e+01  1.67088723e+02]
alpha-B3u nocc = 1  HOMO = -0.133210777566656  LUMO = 0.0247857498013357

WARN: alpha-B3u HOMO -0.133210777566656 > system LUMO -0.13321077756666

   mo_energy = [-1.33210778e-01  2.47857498e-02  1.18386559e-01  2.97794538e-01
  2.97794538e-01  4.55388923e-01  8.99813551e-01  8.99813551e-01
  1.53829018e+00  2.34729975e+00  2.34729975e+00  4.93269905e+00
  6.44097036e+00  6.44097036e+00  1.53751290e+01  2.52181713e+01
  2.52181713e+01  4.98061072e+01  1.67088723e+02]
beta-Ag nocc = 2  HOMO = -0.787893243972447  LUMO = 0.0232602005577732
   mo_energy = [-1.14891526e+01 -7.87893244e-01  2.32602006e-02  8.25490349e-02
  8.25490349e-02  1.34106471e-01  2.85143716e-01  2.85143716e-01
  5.39978267e-01  8.01811638e-01  8.01811638e-01  8.98082040e-01
  8.98082040e-01  8.98082040e-01  1.99323211e+00  2.18444304e+00
  2.18444304e+00  2.46626828e+00  2.46626828e+00  2.46626828e+00
  6.11407705e+00  6.11407705e+00  6.11407705e+00  6.24160275e+00
  6.24160275e+00  7.65640122e+00  2.00638499e+01  2.00638499e+01
  2.71429423e+01  7.87485386e+01  7.87485386e+01  9.14770986e+01
  3.81035038e+02]
beta-B1g nocc = 0
   mo_energy = [ 0.08254903  0.28514372  0.80181164  0.89808204  0.89808204  2.18444304
  2.46626828  2.46626828  6.11407705  6.11407705  6.24160275 20.06384988
 78.74853859]
beta-B2g nocc = 0
   mo_energy = [ 0.08254903  0.28514372  0.80181164  0.89808204  0.89808204  2.18444304
  2.46626828  2.46626828  6.11407705  6.11407705  6.24160275 20.06384988
 78.74853859]
beta-B3g nocc = 0
   mo_energy = [ 0.08254903  0.28514372  0.80181164  0.89808204  0.89808204  2.18444304
  2.46626828  2.46626828  6.11407705  6.11407705  6.24160275 20.06384988
 78.74853859]
beta-Au nocc = 0
   mo_energy = [ 0.29779454  0.89981355  2.34729975  6.44097036 25.21817131]
beta-B1u nocc = 0
   mo_energy = [-1.33210778e-01  2.47857498e-02  1.18386559e-01  2.97794538e-01
  2.97794538e-01  4.55388923e-01  8.99813551e-01  8.99813551e-01
  1.53829018e+00  2.34729975e+00  2.34729975e+00  4.93269905e+00
  6.44097036e+00  6.44097036e+00  1.53751290e+01  2.52181713e+01
  2.52181713e+01  4.98061072e+01  1.67088723e+02]
beta-B2u nocc = 0
   mo_energy = [-1.33210778e-01  2.47857498e-02  1.18386559e-01  2.97794538e-01
  2.97794538e-01  4.55388923e-01  8.99813551e-01  8.99813551e-01
  1.53829018e+00  2.34729975e+00  2.34729975e+00  4.93269905e+00
  6.44097036e+00  6.44097036e+00  1.53751290e+01  2.52181713e+01
  2.52181713e+01  4.98061072e+01  1.67088723e+02]
beta-B3u nocc = 0
   mo_energy = [-1.33210778e-01  2.47857498e-02  1.18386559e-01  2.97794538e-01
  2.97794538e-01  4.55388923e-01  8.99813551e-01  8.99813551e-01
  1.53829018e+00  2.34729975e+00  2.34729975e+00  4.93269905e+00
  6.44097036e+00  6.44097036e+00  1.53751290e+01  2.52181713e+01
  2.52181713e+01  4.98061072e+01  1.67088723e+02]
multiplicity <S^2> = 2  2S+1 = 3
E1 = -49.86723856184959  Ecoul = 12.211803498759302
cycle= 1 E= -37.6554350630903  delta_E= -0.312  |g|= 0.149  |ddm|= 0.471
    CPU time for cycle= 1      0.35 sec, wall time      0.11 sec
diis-norm(errvec)=0.211395
diis-c [-0.04468802  1.        ]
alpha HOMO (B2u) = -0.456609815553656  LUMO (B1u) = -0.0380948618514343
alpha irrep_nelec = [2, 0, 0, 0, 0, 0, 1, 1]
beta  irrep_nelec = [2, 0, 0, 0, 0, 0, 0, 0]
alpha-Ag nocc = 2  HOMO = -0.889438991334168  LUMO = 0.0208281359493489
   mo_energy = [-1.15050962e+01 -8.89438991e-01  2.08281359e-02  8.07966141e-02
  8.24948892e-02  1.26216349e-01  2.74574361e-01  2.76492473e-01
  5.23971671e-01  7.69760989e-01  7.79997404e-01  8.88968083e-01
  8.92396545e-01  9.02813961e-01  1.97126086e+00  2.15077200e+00
  2.15259825e+00  2.44578761e+00  2.45258778e+00  2.47311361e+00
  6.08364433e+00  6.09358012e+00  6.12344915e+00  6.20930265e+00
  6.22536036e+00  7.63997459e+00  2.00409932e+01  2.00632379e+01
  2.71357922e+01  7.87384884e+01  7.87522211e+01  9.14748666e+01
  3.81034455e+02]
alpha-B1g nocc = 0
   mo_energy = [ 0.08249489  0.27457436  0.76976099  0.89239655  0.90281396  2.150772
  2.45258778  2.47311361  6.09358012  6.12344915  6.22536036 20.06323791
 78.75222106]
alpha-B2g nocc = 0
   mo_energy = [ 0.08120405  0.2758799   0.77693805  0.88982207  0.89671787  2.15172678
  2.44748562  2.46111772  6.08612715  6.10601515  6.21325082 20.04654757
 78.74192364]
alpha-B3g nocc = 0
   mo_energy = [ 0.08120405  0.2758799   0.77693805  0.88982207  0.89671787  2.15172678
  2.44748562  2.46111772  6.08612715  6.10601515  6.21325082 20.04654757
 78.74192364]
alpha-Au nocc = 0
   mo_energy = [ 0.29606599  0.89118703  2.32943797  6.42068785 25.2072491 ]
alpha-B1u nocc = 0
   mo_energy = [-3.80948619e-02  2.47301665e-02  1.18531710e-01  2.93512201e-01
  2.96065989e-01  4.49422263e-01  8.85852623e-01  8.91187029e-01
  1.51915070e+00  2.32031812e+00  2.32943797e+00  4.90477035e+00
  6.40725984e+00  6.42068785e+00  1.53497303e+01  2.51943825e+01
  2.52072491e+01  4.97905135e+01  1.67081703e+02]
alpha-B2u nocc = 1  HOMO = -0.456609815553656  LUMO = 0.0239463845902799
   mo_energy = [-4.56609816e-01  2.39463846e-02  1.08279378e-01  2.94147305e-01
  2.99310586e-01  4.25822504e-01  8.87177366e-01  8.97953237e-01
  1.50470347e+00  2.32258850e+00  2.34097701e+00  4.91407017e+00
  6.41060937e+00  6.43759424e+00  1.53707024e+01  2.51975982e+01
  2.52233467e+01  4.98074760e+01  1.67090490e+02]
alpha-B3u nocc = 1  HOMO = -0.45660981555366  LUMO = 0.023946384590282
   mo_energy = [-4.56609816e-01  2.39463846e-02  1.08279378e-01  2.94147305e-01
  2.99310586e-01  4.25822504e-01  8.87177366e-01  8.97953237e-01
  1.50470347e+00  2.32258850e+00  2.34097701e+00  4.91407017e+00
  6.41060937e+00  6.43759424e+00  1.53707024e+01  2.51975982e+01
  2.52233467e+01  4.98074760e+01  1.67090490e+02]
beta-Ag nocc = 2  HOMO = -0.688386467176475  LUMO = 0.0251739057695025
   mo_energy = [-1.14733260e+01 -6.88386467e-01  2.51739058e-02  8.18608175e-02
  8.49288191e-02  1.41448949e-01  2.87603888e-01  3.00839152e-01
  5.55791328e-01  8.12331716e-01  8.45434554e-01  8.94189728e-01
  8.98659428e-01  9.12354059e-01  2.01507670e+00  2.19337025e+00
  2.24261219e+00  2.45904142e+00  2.46888080e+00  2.49885925e+00
  6.10360272e+00  6.11822372e+00  6.16250891e+00  6.24008246e+00
  6.29225812e+00  7.67291333e+00  2.00560256e+01  2.00951826e+01
  2.71501350e+01  7.87426082e+01  7.87608302e+01  9.14793431e+01
  3.81035622e+02]
beta-B1g nocc = 0
   mo_energy = [ 0.08492882  0.30083915  0.84543455  0.89865943  0.91235406  2.24261219
  2.4688808   2.49885925  6.11822372  6.16250891  6.29225812 20.09518261
 78.76083024]
beta-B2g nocc = 0
   mo_energy = [ 0.08259518  0.29067155  0.82009072  0.89530454  0.90419191  2.20525089
  2.46149516  2.48127594  6.1072516   6.13659721  6.25296591 20.06579891
 78.74716696]
beta-B3g nocc = 0
   mo_energy = [ 0.08259518  0.29067155  0.82009072  0.89530454  0.90419191  2.20525089
  2.46149516  2.48127594  6.1072516   6.13659721  6.25296591 20.06579891
 78.74716696]
beta-Au nocc = 0
   mo_energy = [ 0.29950063  0.90839042  2.36520024  6.46128542 25.22909437]
beta-B1u nocc = 0
   mo_energy = [5.32293678e-04 2.78222555e-02 1.26683022e-01 2.95882864e-01
 2.99500630e-01 4.65108759e-01 8.97783218e-01 9.08390419e-01
 1.53960040e+00 2.34513375e+00 2.36520024e+00 4.92231949e+00
 6.43532243e+00 6.46128542e+00 1.53600951e+01 2.52093910e+01
 2.52290944e+01 4.97946582e+01 1.67082883e+02]
beta-B2u nocc = 0
   mo_energy = [2.03727172e-02 4.65967039e-02 1.43204125e-01 2.96789695e-01
 3.04096467e-01 4.93453404e-01 9.00418571e-01 9.22015630e-01
 1.58252670e+00 2.35011520e+00 2.39098040e+00 4.97038044e+00
 6.44178735e+00 6.49419594e+00 1.53997954e+01 2.52143142e+01
 2.52537645e+01 4.98182682e+01 1.67093386e+02]
beta-B3u nocc = 0
   mo_energy = [2.03727172e-02 4.65967039e-02 1.43204125e-01 2.96789695e-01
 3.04096467e-01 4.93453404e-01 9.00418571e-01 9.22015630e-01
 1.58252670e+00 2.35011520e+00 2.39098040e+00 4.97038044e+00
 6.44178735e+00 6.49419594e+00 1.53997954e+01 2.52143142e+01
 2.52537645e+01 4.98182682e+01 1.67093386e+02]
multiplicity <S^2> = 2.0023724  2S+1 = 3.0015812
E1 = -50.3938849746481  Ecoul = 12.706138887665123
cycle= 2 E= -37.687746086983  delta_E= -0.0323  |g|= 0.063  |ddm|= 0.224
    CPU time for cycle= 2      0.34 sec, wall time      0.09 sec
diis-norm(errvec)=0.0890967
diis-c [-0.00737602 -0.13992643  1.13992643]
alpha HOMO (B2u) = -0.429713055547204  LUMO (B1u) = 0.0109369034901006
alpha irrep_nelec = [2, 0, 0, 0, 0, 0, 1, 1]
beta  irrep_nelec = [2, 0, 0, 0, 0, 0, 0, 0]
alpha-Ag nocc = 2  HOMO = -0.827075854669405  LUMO = 0.0244452506519585
   mo_energy = [-1.13357681e+01 -8.27075855e-01  2.44452507e-02  8.22568662e-02
  8.39637801e-02  1.37744294e-01  2.87600022e-01  2.88171957e-01
  5.51176794e-01  8.00020946e-01  8.13215149e-01  8.99216423e-01
  9.02312146e-01  9.11754388e-01  2.03666515e+00  2.20840693e+00
  2.21843236e+00  2.47955697e+00  2.48625468e+00  2.50648830e+00
  6.15879066e+00  6.16935487e+00  6.20119150e+00  6.31827169e+00
  6.33248925e+00  7.76110238e+00  2.01906560e+01  2.02164458e+01
  2.72940576e+01  7.89115994e+01  7.89285262e+01  9.16496126e+01
  3.81213941e+02]
alpha-B1g nocc = 0
   mo_energy = [ 0.08396378  0.28817196  0.80002095  0.90231215  0.91175439  2.20840693
  2.48625468  2.5064883   6.16935487  6.2011915   6.33248925 20.21644576
 78.92852622]
alpha-B2g nocc = 0
   mo_energy = [ 0.0826545   0.2875164   0.80903429  0.8999858   0.90622633  2.21504098
  2.48122915  2.49465991  6.16142915  6.18259574  6.32171352 20.19709055
 78.91583331]
alpha-B3g nocc = 0
   mo_energy = [ 0.0826545   0.2875164   0.80903429  0.8999858   0.90622633  2.21504098
  2.48122915  2.49465991  6.16142915  6.18259574  6.32171352 20.19709055
 78.91583331]
alpha-Au nocc = 0
   mo_energy = [ 0.29962509  0.90907735  2.37696297  6.51711734 25.36116697]
alpha-B1u nocc = 0
   mo_energy = [1.09369035e-02 3.23862529e-02 1.34606994e-01 2.97334929e-01
 2.99625093e-01 4.85946156e-01 9.03851699e-01 9.09077350e-01
 1.58981274e+00 2.36830913e+00 2.37696297e+00 5.01541600e+00
 6.50306562e+00 6.51711734e+00 1.54945549e+01 2.53458164e+01
 2.53611670e+01 4.99578560e+01 1.67258919e+02]
alpha-B2u nocc = 1  HOMO = -0.429713055547204  LUMO = 0.0244800315425323
   mo_energy = [-4.29713056e-01  2.44800315e-02  1.13437090e-01  2.97906455e-01
  3.02514719e-01  4.45277949e-01  9.05145818e-01  9.15703214e-01
  1.56037636e+00  2.37045991e+00  2.38792702e+00  5.02010085e+00
  6.50656929e+00  6.53483214e+00  1.55179476e+01  2.53496522e+01
  2.53803829e+01  4.99783996e+01  1.67269816e+02]
alpha-B3u nocc = 1  HOMO = -0.429713055547208  LUMO = 0.0244800315425298
   mo_energy = [-4.29713056e-01  2.44800315e-02  1.13437090e-01  2.97906455e-01
  3.02514719e-01  4.45277949e-01  9.05145818e-01  9.15703214e-01
  1.56037636e+00  2.37045991e+00  2.38792702e+00  5.02010085e+00
  6.50656929e+00  6.53483214e+00  1.55179476e+01  2.53496522e+01
  2.53803829e+01  4.99783996e+01  1.67269816e+02]
beta-Ag nocc = 2  HOMO = -0.598763492156064  LUMO = 0.0262429352255554
   mo_energy = [-1.12963615e+01 -5.98763492e-01  2.62429352e-02  8.25822382e-02
  8.47857651e-02  1.48316968e-01  2.94220730e-01  3.05353780e-01
  5.84249379e-01  8.42817864e-01  8.77111033e-01  9.02591204e-01
  9.06420402e-01  9.17753367e-01  2.09000346e+00  2.26518399e+00
  2.32264316e+00  2.49171249e+00  2.50161384e+00  2.53189334e+00
  6.18126162e+00  6.19793937e+00  6.24853726e+00  6.35649152e+00
  6.41965649e+00  7.80272233e+00  2.02099193e+01  2.02586115e+01
  2.73119528e+01  7.89166797e+01  7.89396959e+01  9.16546360e+01
  3.81214813e+02]
beta-B1g nocc = 0
   mo_energy = [ 0.08478577  0.30535378  0.87711103  0.9064204   0.91775337  2.32264316
  2.50161384  2.53189334  6.19793937  6.24853726  6.41965649 20.25861154
 78.93969591]
beta-B2g nocc = 0
   mo_energy = [ 0.08311663  0.29682841  0.85077462  0.90353647  0.91083905  2.27879939
  2.49418106  2.51409032  6.18542298  6.21891444  6.37205397 20.22206762
 78.92243824]
beta-B3g nocc = 0
   mo_energy = [ 0.08311663  0.29682841  0.85077462  0.90353647  0.91083905  2.27879939
  2.49418106  2.51409032  6.18542298  6.21891444  6.37205397 20.22206762
 78.92243824]
beta-Au nocc = 0
   mo_energy = [ 0.30109392  0.92254152  2.41560068  6.56757919 25.38974055]
beta-B1u nocc = 0
   mo_energy = [1.95079523e-02 5.02981164e-02 1.48355040e-01 2.98344105e-01
 3.01093923e-01 5.03521014e-01 9.12770043e-01 9.22541517e-01
 1.61199023e+00 2.39382475e+00 2.41560068e+00 5.03554627e+00
 6.53672284e+00 6.56757919e+00 1.55069505e+01 2.53651326e+01
 2.53897405e+01 4.99625043e+01 1.67259760e+02]
beta-B2u nocc = 0
   mo_energy = [2.28226319e-02 7.59262085e-02 1.78815337e-01 2.99037170e-01
 3.04597570e-01 5.38710445e-01 9.15200338e-01 9.35076170e-01
 1.66202853e+00 2.39922807e+00 2.44363493e+00 5.09336816e+00
 6.54440147e+00 6.60679226e+00 1.55559939e+01 2.53712801e+01
 2.54205685e+01 4.99921029e+01 1.67272987e+02]
beta-B3u nocc = 0
   mo_energy = [2.28226319e-02 7.59262085e-02 1.78815337e-01 2.99037170e-01
 3.04597570e-01 5.38710445e-01 9.15200338e-01 9.35076170e-01
 1.66202853e+00 2.39922807e+00 2.44363493e+00 5.09336816e+00
 6.54440147e+00 6.60679226e+00 1.55559939e+01 2.53712801e+01
 2.54205685e+01 4.99921029e+01 1.67272987e+02]
multiplicity <S^2> = 2.0061045  2S+1 = 3.0040669
E1 = -50.4171618782684  Ecoul = 12.724615523892222
cycle= 3 E= -37.6925463543762  delta_E= -0.0048  |g|= 0.0211  |ddm|= 0.0928
    CPU time for cycle= 3      0.34 sec, wall time      0.09 sec
diis-norm(errvec)=0.0297756
diis-c [-3.11696226e-04 -6.03007880e-02 -2.49439279e-01  1.30974007e+00]
alpha HOMO (B3u) = -0.437600409447283  LUMO (B1u) = 0.0127428771193668
alpha irrep_nelec = [2, 0, 0, 0, 0, 0, 1, 1]
beta  irrep_nelec = [2, 0, 0, 0, 0, 0, 0, 0]
alpha-Ag nocc = 2  HOMO = -0.826791484617727  LUMO = 0.0249334960921215
   mo_energy = [-1.13442410e+01 -8.26791485e-01  2.49334961e-02  8.24950142e-02
  8.41761551e-02  1.39453326e-01  2.89411214e-01  2.90487172e-01
  5.53788322e-01  8.01677116e-01  8.16132474e-01  9.00932725e-01
  9.03938109e-01  9.13132128e-01  2.03862417e+00  2.20752867e+00
  2.21981820e+00  2.48311513e+00  2.48973845e+00  2.50976867e+00
  6.16091617e+00  6.17156312e+00  6.20369318e+00  6.31699131e+00
  6.33092742e+00  7.75985378e+00  2.01863817e+01  2.02129570e+01
  2.72886293e+01  7.89025148e+01  7.89200274e+01  9.16384980e+01
  3.81195480e+02]
alpha-B1g nocc = 0
   mo_energy = [ 0.08417616  0.29048717  0.80167712  0.90393811  0.91313213  2.20752867
  2.48973845  2.50976867  6.17156312  6.20369318  6.33092742 20.21295699
 78.92002737]
alpha-B2g nocc = 0
   mo_energy = [ 0.08288972  0.28945512  0.81166308  0.90167893  0.90774564  2.21587996
  2.48476835  2.49805556  6.16357444  6.18491944  6.32038754 20.19300357
 78.90689141]
alpha-B3g nocc = 0
   mo_energy = [ 0.08288972  0.28945512  0.81166308  0.90167893  0.90774564  2.21587996
  2.48476835  2.49805556  6.16357444  6.18491944  6.32038754 20.19300357
 78.90689141]
alpha-Au nocc = 0
   mo_energy = [ 0.30022422  0.91161114  2.3797794   6.51728639 25.35761015]
alpha-B1u nocc = 0
   mo_energy = [1.27428771e-02 3.35973668e-02 1.35506972e-01 2.98008039e-01
 3.00224224e-01 4.87662390e-01 9.06443977e-01 9.11611136e-01
 1.59092788e+00 2.37136334e+00 2.37977940e+00 5.01397572e+00
 6.50315777e+00 6.51728639e+00 1.54902199e+01 2.53417551e+01
 2.53576102e+01 4.99496474e+01 1.67244732e+02]
alpha-B2u nocc = 1  HOMO = -0.43760040944729  LUMO = 0.0244547370961659
   mo_energy = [-4.37600409e-01  2.44547371e-02  1.13339160e-01  2.98561111e-01
  3.03021837e-01  4.44732328e-01  9.07724722e-01  9.18140767e-01
  1.55914843e+00  2.37346196e+00  2.39034093e+00  5.01796254e+00
  6.50668315e+00  6.53505999e+00  1.55141833e+01  2.53457157e+01
  2.53774762e+01  4.99708859e+01  1.67255999e+02]
alpha-B3u nocc = 1  HOMO = -0.437600409447283  LUMO = 0.0244547370961654
   mo_energy = [-4.37600409e-01  2.44547371e-02  1.13339160e-01  2.98561111e-01
  3.03021837e-01  4.44732328e-01  9.07724722e-01  9.18140767e-01
  1.55914843e+00  2.37346196e+00  2.39034093e+00  5.01796254e+00
  6.50668315e+00  6.53505999e+00  1.55141833e+01  2.53457157e+01
  2.53774762e+01  4.99708859e+01  1.67255999e+02]
beta-Ag nocc = 2  HOMO = -0.586408189029506  LUMO = 0.0264844432136185
   mo_energy = [-1.13021933e+01 -5.86408189e-01  2.64844432e-02  8.26852162e-02
  8.47116137e-02  1.49862781e-01  2.94676672e-01  3.05440871e-01
  5.89236577e-01  8.44314829e-01  8.79376035e-01  9.03671036e-01
  9.07355498e-01  9.18179345e-01  2.09657905e+00  2.26842831e+00
  2.32827962e+00  2.49463571e+00  2.50458477e+00  2.53516014e+00
  6.18413698e+00  6.20133911e+00  6.25373405e+00  6.35740115e+00
  6.42316624e+00  7.80497245e+00  2.02065621e+01  2.02572100e+01
  2.73081234e+01  7.89079756e+01  7.89318617e+01  9.16442835e+01
  3.81196774e+02]
beta-B1g nocc = 0
   mo_energy = [ 0.08471161  0.30544087  0.87937604  0.9073555   0.91817935  2.32827962
  2.50458477  2.53516014  6.20133911  6.25373405  6.42316624 20.25721002
 78.93186175]
beta-B2g nocc = 0
   mo_energy = [ 0.08317651  0.29718812  0.85238239  0.90457617  0.91153343  2.28248202
  2.49711422  2.5171471   6.18842638  6.22301949  6.37354413 20.21916995
 78.91394544]
beta-B3g nocc = 0
   mo_energy = [ 0.08317651  0.29718812  0.85238239  0.90457617  0.91153343  2.28248202
  2.49711422  2.5171471   6.18842638  6.22301949  6.37354413 20.21916995
 78.91394544]
beta-Au nocc = 0
   mo_energy = [ 0.30123704  0.92379293  2.41912882  6.57067817 25.38765309]
beta-B1u nocc = 0
   mo_energy = [1.94301252e-02 4.97851003e-02 1.48900971e-01 2.98678487e-01
 3.01237045e-01 5.05779899e-01 9.14167491e-01 9.23792932e-01
 1.61341220e+00 2.39679866e+00 2.41912882e+00 5.03483691e+00
 6.53863402e+00 6.57067817e+00 1.55034974e+01 2.53620711e+01
 2.53876531e+01 4.99549059e+01 1.67246001e+02]
beta-B2u nocc = 0
   mo_energy = [2.27973816e-02 7.64387451e-02 1.81380993e-01 2.99324661e-01
 3.04504719e-01 5.42691415e-01 9.16560929e-01 9.36176013e-01
 1.66534797e+00 2.40233398e+00 2.44800146e+00 5.09508951e+00
 6.54659995e+00 6.61155756e+00 1.55545918e+01 2.53684583e+01
 2.54197577e+01 4.99856660e+01 1.67259711e+02]
beta-B3u nocc = 0
   mo_energy = [2.27973816e-02 7.64387451e-02 1.81380993e-01 2.99324661e-01
 3.04504719e-01 5.42691415e-01 9.16560929e-01 9.36176013e-01
 1.66534797e+00 2.40233398e+00 2.44800146e+00 5.09508951e+00
 6.54659995e+00 6.61155756e+00 1.55545918e+01 2.53684583e+01
 2.54197577e+01 4.99856660e+01 1.67259711e+02]
multiplicity <S^2> = 2.0092723  2S+1 = 3.0061752
E1 = -50.44290870047293  Ecoul = 12.74957426063908
cycle= 4 E= -37.6933344398338  delta_E= -0.000788  |g|= 0.00521  |ddm|= 0.0548
    CPU time for cycle= 4      0.34 sec, wall time      0.09 sec
diis-norm(errvec)=0.00737232
diis-c [-2.43411934e-05  1.21957374e-02  9.18501696e-02 -5.26829984e-01
  1.42278408e+00]
alpha HOMO (B3u) = -0.439083329528449  LUMO (B1u) = 0.0122256874302278
alpha irrep_nelec = [2, 0, 0, 0, 0, 0, 1, 1]
beta  irrep_nelec = [2, 0, 0, 0, 0, 0, 0, 0]
alpha-Ag nocc = 2  HOMO = -0.829204289575991  LUMO = 0.0248048125846941
   mo_energy = [-1.13466212e+01 -8.29204290e-01  2.48048126e-02  8.24565494e-02
  8.41020143e-02  1.39126770e-01  2.89245779e-01  2.90311402e-01
  5.52978754e-01  8.01104941e-01  8.15432416e-01  9.00700708e-01
  9.03668390e-01  9.12758324e-01  2.03667692e+00  2.20541747e+00
  2.21787348e+00  2.48227105e+00  2.48884264e+00  2.50872271e+00
  6.15895598e+00  6.16957842e+00  6.20164964e+00  6.31461440e+00
  6.32842131e+00  7.75749643e+00  2.01845793e+01  2.02112483e+01
  2.72867515e+01  7.89012193e+01  7.89188767e+01  9.16370411e+01
  3.81194290e+02]
alpha-B1g nocc = 0
   mo_energy = [ 0.08410201  0.2903114   0.80110494  0.90366839  0.91275832  2.20541747
  2.48884264  2.50872271  6.16957842  6.20164964  6.32842131 20.21124827
 78.9188767 ]
alpha-B2g nocc = 0
   mo_energy = [ 0.08284286  0.28930841  0.81110088  0.9014374   0.907431    2.21396464
  2.48391119  2.49709668  6.16160781  6.1829082   6.31798447 20.19122067
 78.90563094]
alpha-B3g nocc = 0
   mo_energy = [ 0.08284286  0.28930841  0.81110088  0.9014374   0.907431    2.21396464
  2.48391119  2.49709668  6.16160781  6.1829082   6.31798447 20.19122067
 78.90563094]
alpha-Au nocc = 0
   mo_energy = [ 0.30009791  0.9112321   2.37849277  6.51492741 25.35579532]
alpha-B1u nocc = 0
   mo_energy = [1.22256874e-02 3.31296268e-02 1.34997103e-01 2.97914467e-01
 3.00097911e-01 4.86724107e-01 9.06105150e-01 9.11232095e-01
 1.58944561e+00 2.37011021e+00 2.37849277e+00 5.01208367e+00
 6.50080604e+00 6.51492741e+00 1.54883464e+01 2.53398581e+01
 2.53557953e+01 4.99480682e+01 1.67243408e+02]
alpha-B2u nocc = 1  HOMO = -0.439083329528455  LUMO = 0.0243836249983539
   mo_energy = [-4.39083330e-01  2.43836250e-02  1.12811452e-01  2.98459143e-01
  3.02857422e-01  4.43496884e-01  9.07377213e-01  9.17699905e-01
  1.55714414e+00  2.37220339e+00  2.38896559e+00  5.01576451e+00
  6.50433016e+00  6.53268004e+00  1.55123393e+01  2.53438387e+01
  2.53757713e+01  4.99694475e+01  1.67254779e+02]
alpha-B3u nocc = 1  HOMO = -0.439083329528449  LUMO = 0.0243836249983557
   mo_energy = [-4.39083330e-01  2.43836250e-02  1.12811452e-01  2.98459143e-01
  3.02857422e-01  4.43496884e-01  9.07377213e-01  9.17699905e-01
  1.55714414e+00  2.37220339e+00  2.38896559e+00  5.01576451e+00
  6.50433016e+00  6.53268004e+00  1.55123393e+01  2.53438387e+01
  2.53757713e+01  4.99694475e+01  1.67254779e+02]
beta-Ag nocc = 2  HOMO = -0.58463671755871  LUMO = 0.0264908187340624
   mo_energy = [-1.13022196e+01 -5.84636718e-01  2.64908187e-02  8.26607569e-02
  8.46836110e-02  1.49900592e-01  2.94281891e-01  3.04998620e-01
  5.89235926e-01  8.43143351e-01  8.78103081e-01  9.03298959e-01
  9.06937831e-01  9.17679447e-01  2.09620466e+00  2.26725722e+00
  2.32705752e+00  2.49351368e+00  2.50338727e+00  2.53378649e+00
  6.18243065e+00  6.19960141e+00  6.25197760e+00  6.35596438e+00
  6.42189663e+00  7.80415738e+00  2.02051071e+01  2.02560467e+01
  2.73073136e+01  7.89069963e+01  7.89310841e+01  9.16436561e+01
  3.81196169e+02]
beta-B1g nocc = 0
   mo_energy = [ 0.08468361  0.30499862  0.87810308  0.90693783  0.91767945  2.32705752
  2.50338727  2.53378649  6.19960141  6.2519776   6.42189663 20.2560467
 78.93108411]
beta-B2g nocc = 0
   mo_energy = [ 0.08315082  0.29678276  0.85119374  0.90419397  0.91109128  2.28128942
  2.49597261  2.51586612  6.18671116  6.22125932  6.37212958 20.21777833
 78.91301469]
beta-B3g nocc = 0
   mo_energy = [ 0.08315082  0.29678276  0.85119374  0.90419397  0.91109128  2.28128942
  2.49597261  2.51586612  6.18671116  6.22125932  6.37212958 20.21777833
 78.91301469]
beta-Au nocc = 0
   mo_energy = [ 0.30111567  0.92302448  2.41766543  6.56907544 25.38629305]
beta-B1u nocc = 0
   mo_energy = [1.92185093e-02 4.88553608e-02 1.48559021e-01 2.98574804e-01
 3.01115672e-01 5.05528591e-01 9.13476009e-01 9.23024481e-01
 1.61235927e+00 2.39542833e+00 2.41766543e+00 5.03345549e+00
 6.53700805e+00 6.56907544e+00 1.55022046e+01 2.53605576e+01
 2.53862931e+01 4.99539504e+01 1.67245279e+02]
beta-B2u nocc = 0
   mo_energy = [2.27441750e-02 7.57117761e-02 1.80729247e-01 2.99216316e-01
 3.04363450e-01 5.42401323e-01 9.15849702e-01 9.35323552e-01
 1.66429200e+00 2.40093864e+00 2.44646092e+00 5.09382711e+00
 6.54497700e+00 6.61003544e+00 1.55535342e+01 2.53669820e+01
 2.54186079e+01 4.99849327e+01 1.67259115e+02]
beta-B3u nocc = 0
   mo_energy = [2.27441750e-02 7.57117761e-02 1.80729247e-01 2.99216316e-01
 3.04363450e-01 5.42401323e-01 9.15849702e-01 9.35323552e-01
 1.66429200e+00 2.40093864e+00 2.44646092e+00 5.09382711e+00
 6.54497700e+00 6.61003544e+00 1.55535342e+01 2.53669820e+01
 2.54186079e+01 4.99849327e+01 1.67259115e+02]
multiplicity <S^2> = 2.0102374  2S+1 = 3.0068172
E1 = -50.449300830531584  Ecoul = 12.755925015664214
cycle= 5 E= -37.6933758148674  delta_E= -4.14e-05  |g|= 0.00112  |ddm|= 0.01
    CPU time for cycle= 5      0.34 sec, wall time      0.09 sec
diis-norm(errvec)=0.00158779
diis-c [-2.81314054e-07  1.93547078e-03 -2.04778933e-02  8.52088184e-02
 -4.15437853e-01  1.34877146e+00]
alpha HOMO (B3u) = -0.439041558064503  LUMO (B1u) = 0.0123528434093568
alpha irrep_nelec = [2, 0, 0, 0, 0, 0, 1, 1]
beta  irrep_nelec = [2, 0, 0, 0, 0, 0, 0, 0]
alpha-Ag nocc = 2  HOMO = -0.829313168700251  LUMO = 0.0248147443970576
   mo_energy = [-1.13457526e+01 -8.29313169e-01  2.48147444e-02  8.24660205e-02
  8.41062566e-02  1.39150044e-01  2.89317402e-01  2.90385784e-01
  5.53038307e-01  8.01376877e-01  8.15665047e-01  9.00765402e-01
  9.03725632e-01  9.12792244e-01  2.03690775e+00  2.20570872e+00
  2.21820203e+00  2.48247692e+00  2.48904403e+00  2.50890909e+00
  6.15940335e+00  6.17003032e+00  6.20211232e+00  6.31527162e+00
  6.32905991e+00  7.75815739e+00  2.01856109e+01  2.02123124e+01
  2.72876944e+01  7.89022842e+01  7.89199687e+01  9.16379721e+01
  3.81195053e+02]
alpha-B1g nocc = 0
   mo_energy = [ 0.08410626  0.29038578  0.80137688  0.90372563  0.91279224  2.20570872
  2.48904403  2.50890909  6.17003032  6.20211232  6.32905991 20.21231239
 78.91996874]
alpha-B2g nocc = 0
   mo_energy = [ 0.08285115  0.28938018  0.81133346  0.90150024  0.90747871  2.21426928
  2.48411596  2.49729212  6.16205636  6.18336503  6.31863446 20.19226115
 78.90670288]
alpha-B3g nocc = 0
   mo_energy = [ 0.08285115  0.28938018  0.81133346  0.90150024  0.90747871  2.21426928
  2.48411596  2.49729212  6.16205636  6.18336503  6.31863446 20.19226115
 78.90670288]
alpha-Au nocc = 0
   mo_energy = [ 0.30011632  0.91134725  2.37878243  6.51549696 25.35687554]
alpha-B1u nocc = 0
   mo_energy = [1.23528434e-02 3.32306667e-02 1.35077028e-01 2.97939614e-01
 3.00116318e-01 4.86871546e-01 9.06226955e-01 9.11347252e-01
 1.58984919e+00 2.37039954e+00 2.37878243e+00 5.01277275e+00
 6.50136954e+00 6.51549696e+00 1.54892723e+01 2.53409151e+01
 2.53568755e+01 4.99490696e+01 1.67244297e+02]
alpha-B2u nocc = 1  HOMO = -0.439041558064514  LUMO = 0.0243927003224489
   mo_energy = [-4.39041558e-01  2.43927003e-02  1.12869829e-01  2.98482617e-01
  3.02866991e-01  4.43590538e-01  9.07497228e-01  9.17808335e-01
  1.55744280e+00  2.37249223e+00  2.38926272e+00  5.01642441e+00
  6.50489505e+00  6.53325932e+00  1.55132907e+01  2.53449016e+01
  2.53768791e+01  4.99704810e+01  1.67255686e+02]
alpha-B3u nocc = 1  HOMO = -0.439041558064503  LUMO = 0.024392700322448
   mo_energy = [-4.39041558e-01  2.43927003e-02  1.12869829e-01  2.98482617e-01
  3.02866991e-01  4.43590538e-01  9.07497228e-01  9.17808335e-01
  1.55744280e+00  2.37249223e+00  2.38926272e+00  5.01642441e+00
  6.50489505e+00  6.53325932e+00  1.55132907e+01  2.53449016e+01
  2.53768791e+01  4.99704810e+01  1.67255686e+02]
beta-Ag nocc = 2  HOMO = -0.583588850865845  LUMO = 0.0265063865467246
   mo_energy = [-1.13007797e+01 -5.83588851e-01  2.65063865e-02  8.26653032e-02
  8.46797923e-02  1.50000114e-01  2.94296387e-01  3.04981609e-01
  5.89583047e-01  8.43295687e-01  8.78177882e-01  9.03332295e-01
  9.06960871e-01  9.17670572e-01  2.09693368e+00  2.26784587e+00
  2.32760769e+00  2.49367037e+00  2.50352857e+00  2.53387312e+00
  6.18297702e+00  6.20014789e+00  6.25251209e+00  6.35689751e+00
  6.42287650e+00  7.80525604e+00  2.02062178e+01  2.02572298e+01
  2.73085435e+01  7.89081323e+01  7.89322607e+01  9.16448112e+01
  3.81197094e+02]
beta-B1g nocc = 0
   mo_energy = [ 0.08467979  0.30498161  0.87817788  0.90696087  0.91767057  2.32760769
  2.50352857  2.53387312  6.20014789  6.25251209  6.4228765  20.25722983
 78.93226072]
beta-B2g nocc = 0
   mo_energy = [ 0.08315341  0.29679004  0.85132648  0.90422479  0.91110225  2.28186684
  2.49612558  2.51598614  6.18725775  6.2218031   6.37307688 20.21890877
 78.91416128]
beta-B3g nocc = 0
   mo_energy = [ 0.08315341  0.29679004  0.85132648  0.90422479  0.91110225  2.28186684
  2.49612558  2.51598614  6.18725775  6.2218031   6.37307688 20.21890877
 78.91416128]
beta-Au nocc = 0
   mo_energy = [ 0.30111992  0.92305381  2.4179359   6.5698885  25.38748632]
beta-B1u nocc = 0
   mo_energy = [1.92496864e-02 4.90507224e-02 1.48820824e-01 2.98587978e-01
 3.01119919e-01 5.05938112e-01 9.13528005e-01 9.23053808e-01
 1.61294485e+00 2.39572319e+00 2.41793590e+00 5.03430565e+00
 6.53780537e+00 6.56988850e+00 1.55032828e+01 2.53617105e+01
 2.53874863e+01 4.99551109e+01 1.67246331e+02]
beta-B2u nocc = 0
   mo_energy = [2.27425957e-02 7.57564476e-02 1.80979036e-01 2.99227264e-01
 3.04355956e-01 5.42816506e-01 9.15896178e-01 9.35321151e-01
 1.66486834e+00 2.40122766e+00 2.44669393e+00 5.09470367e+00
 6.54577863e+00 6.61086108e+00 1.55546744e+01 2.53681452e+01
 2.54198485e+01 4.99861414e+01 1.67260189e+02]
beta-B3u nocc = 0
   mo_energy = [2.27425957e-02 7.57564476e-02 1.80979036e-01 2.99227264e-01
 3.04355956e-01 5.42816506e-01 9.15896178e-01 9.35321151e-01
 1.66486834e+00 2.40122766e+00 2.44669393e+00 5.09470367e+00
 6.54577863e+00 6.61086108e+00 1.55546744e+01 2.53681452e+01
 2.54198485e+01 4.99861414e+01 1.67260189e+02]
multiplicity <S^2> = 2.0104421  2S+1 = 3.0069533
E1 = -50.4493103807888  Ecoul = 12.755932988753619
cycle= 6 E= -37.6933773920352  delta_E= -1.58e-06  |g|= 7.41e-05  |ddm|= 0.00363
    CPU time for cycle= 6      0.34 sec, wall time      0.09 sec
diis-norm(errvec)=0.000104808
diis-c [-2.78759212e-09 -3.49424993e-04  2.55994578e-03 -9.06767588e-03
  5.49864028e-02 -2.23844207e-01  1.17571496e+00]
alpha HOMO (B3u) = -0.439038584483332  LUMO (B1u) = 0.0123570450364821
alpha irrep_nelec = [2, 0, 0, 0, 0, 0, 1, 1]
beta  irrep_nelec = [2, 0, 0, 0, 0, 0, 0, 0]
alpha-Ag nocc = 2  HOMO = -0.829326690190782  LUMO = 0.0248158286840397
   mo_energy = [-1.13457384e+01 -8.29326690e-01  2.48158287e-02  8.24664535e-02
  8.41071655e-02  1.39150979e-01  2.89321012e-01  2.90390439e-01
  5.53037325e-01  8.01390325e-01  8.15676907e-01  9.00768231e-01
  9.03729150e-01  9.12797123e-01  2.03691113e+00  2.20572392e+00
  2.21821407e+00  2.48248698e+00  2.48905526e+00  2.50892383e+00
  6.15941930e+00  6.17004747e+00  6.20213209e+00  6.31528579e+00
  6.32907746e+00  7.75816731e+00  2.01856262e+01  2.02123280e+01
  2.72877086e+01  7.89023071e+01  7.89199901e+01  9.16379990e+01
  3.81195104e+02]
alpha-B1g nocc = 0
   mo_energy = [ 0.08410717  0.29039044  0.80139032  0.90372915  0.91279712  2.20572392
  2.48905526  2.50892383  6.17004747  6.20213209  6.32907746 20.21232801
 78.91999008]
alpha-B2g nocc = 0
   mo_energy = [ 0.0828517   0.28938266  0.81133892  0.90150326  0.90748289  2.21427813
  2.48412632  2.49730478  6.16207263  6.1833834   6.31864944 20.19227681
 78.90672549]
alpha-B3g nocc = 0
   mo_energy = [ 0.0828517   0.28938266  0.81133892  0.90150326  0.90748289  2.21427813
  2.48412632  2.49730478  6.16207263  6.1833834   6.31864944 20.19227681
 78.90672549]
alpha-Au nocc = 0
   mo_energy = [ 0.30011783  0.91135336  2.37879562  6.51551288 25.35688948]
alpha-B1u nocc = 0
   mo_energy = [1.23570450e-02 3.32336669e-02 1.35078380e-01 2.97940617e-01
 3.00117830e-01 4.86873047e-01 9.06232378e-01 9.11353361e-01
 1.58985834e+00 2.37041220e+00 2.37879562e+00 5.01278656e+00
 6.50138439e+00 6.51551288e+00 1.54892882e+01 2.53409291e+01
 2.53568895e+01 4.99490901e+01 1.67244334e+02]
alpha-B2u nocc = 1  HOMO = -0.439038584483333  LUMO = 0.0243934184645659
   mo_energy = [-4.39038584e-01  2.43934185e-02  1.12875045e-01  2.98483759e-01
  3.02868931e-01  4.43603028e-01  9.07502701e-01  9.17816806e-01
  1.55746290e+00  2.37250479e+00  2.38928043e+00  5.01644421e+00
  6.50491015e+00  6.53327701e+00  1.55133073e+01  2.53449157e+01
  2.53768925e+01  4.99705002e+01  1.67255721e+02]
alpha-B3u nocc = 1  HOMO = -0.439038584483332  LUMO = 0.0243934184645667
   mo_energy = [-4.39038584e-01  2.43934185e-02  1.12875045e-01  2.98483759e-01
  3.02868931e-01  4.43603028e-01  9.07502701e-01  9.17816806e-01
  1.55746290e+00  2.37250479e+00  2.38928043e+00  5.01644421e+00
  6.50491015e+00  6.53327701e+00  1.55133073e+01  2.53449157e+01
  2.53768925e+01  4.99705002e+01  1.67255721e+02]
beta-Ag nocc = 2  HOMO = -0.583548446286791  LUMO = 0.0265064208073158
   mo_energy = [-1.13007558e+01 -5.83548446e-01  2.65064208e-02  8.26654206e-02
  8.46799812e-02  1.50000645e-01  2.94298766e-01  3.04983489e-01
  5.89589232e-01  8.43305500e-01  8.78183960e-01  9.03334778e-01
  9.06963842e-01  9.17673844e-01  2.09695287e+00  2.26786492e+00
  2.32762514e+00  2.49368033e+00  2.50353978e+00  2.53388271e+00
  6.18299705e+00  6.20016936e+00  6.25253137e+00  6.35691709e+00
  6.42289524e+00  7.80527740e+00  2.02062325e+01  2.02572428e+01
  2.73085647e+01  7.89081564e+01  7.89322829e+01  9.16448444e+01
  3.81197150e+02]
beta-B1g nocc = 0
   mo_energy = [ 0.08467998  0.30498349  0.87818396  0.90696384  0.91767384  2.32762514
  2.50353978  2.53388271  6.20016936  6.25253137  6.42289524 20.25724277
 78.9322829 ]
beta-B2g nocc = 0
   mo_energy = [ 0.08315359  0.29679282  0.85133735  0.90422745  0.91110577  2.28188807
  2.49613593  2.51599775  6.18727824  6.2218249   6.37309792 20.21892376
 78.91418501]
beta-B3g nocc = 0
   mo_energy = [ 0.08315359  0.29679282  0.85133735  0.90422745  0.91110577  2.28188807
  2.49613593  2.51599775  6.18727824  6.2218249   6.37309792 20.21892376
 78.91418501]
beta-Au nocc = 0
   mo_energy = [ 0.30112088  0.92305959  2.41795158  6.56991189 25.3874998 ]
beta-B1u nocc = 0
   mo_energy = [1.92527092e-02 4.90663371e-02 1.48831976e-01 2.98588631e-01
 3.01120876e-01 5.05949711e-01 9.13533099e-01 9.23059588e-01
 1.61296118e+00 2.39573760e+00 2.41795158e+00 5.03432468e+00
 6.53782739e+00 6.56991189e+00 1.55033027e+01 2.53617246e+01
 2.53874998e+01 4.99551356e+01 1.67246372e+02]
beta-B2u nocc = 0
   mo_energy = [2.27427651e-02 7.57592186e-02 1.80984854e-01 2.99228002e-01
 3.04356937e-01 5.42826860e-01 9.15901539e-01 9.35325661e-01
 1.66488220e+00 2.40124261e+00 2.44670634e+00 5.09472102e+00
 6.54580122e+00 6.61088197e+00 1.55546927e+01 2.53681592e+01
 2.54198600e+01 4.99861641e+01 1.67260229e+02]
beta-B3u nocc = 0
   mo_energy = [2.27427651e-02 7.57592186e-02 1.80984854e-01 2.99228002e-01
 3.04356937e-01 5.42826860e-01 9.15901539e-01 9.35325661e-01
 1.66488220e+00 2.40124261e+00 2.44670634e+00 5.09472102e+00
 6.54580122e+00 6.61088197e+00 1.55546927e+01 2.53681592e+01
 2.54198600e+01 4.99861641e+01 1.67260229e+02]
multiplicity <S^2> = 2.0104425  2S+1 = 3.0069536
E1 = -50.449305397779646  Ecoul = 12.755928001079251
cycle= 7 E= -37.6933773967004  delta_E= -4.67e-09  |g|= 8.29e-06  |ddm|= 0.000231
    CPU time for cycle= 7      0.34 sec, wall time      0.09 sec
diis-norm(errvec)=1.17284e-05
diis-c [-3.61532639e-11  3.18466721e-05 -2.99442456e-04  1.04823311e-03
 -6.95817311e-03  3.05080514e-02 -2.27753719e-01  1.20342320e+00]
alpha HOMO (B2u) = -0.439035583111466  LUMO (B1u) = 0.0123571278783685
alpha irrep_nelec = [2, 0, 0, 0, 0, 0, 1, 1]
beta  irrep_nelec = [2, 0, 0, 0, 0, 0, 0, 0]
alpha-Ag nocc = 2  HOMO = -0.829326874354097  LUMO = 0.0248157938029498
   mo_energy = [-1.13457391e+01 -8.29326874e-01  2.48157938e-02  8.24663972e-02
  8.41072203e-02  1.39150887e-01  2.89321036e-01  2.90390998e-01
  5.53037075e-01  8.01391172e-01  8.15677118e-01  9.00768008e-01
  9.03729103e-01  9.12797547e-01  2.03691094e+00  2.20572474e+00
  2.21821395e+00  2.48248679e+00  2.48905539e+00  2.50892493e+00
  6.15941910e+00  6.17004765e+00  6.20213327e+00  6.31528549e+00
  6.32907815e+00  7.75816717e+00  2.01856261e+01  2.02123286e+01
  2.72877086e+01  7.89023073e+01  7.89199905e+01  9.16379991e+01
  3.81195104e+02]
alpha-B1g nocc = 0
   mo_energy = [ 0.08410722  0.290391    0.80139117  0.9037291   0.91279755  2.20572474
  2.48905539  2.50892493  6.17004765  6.20213327  6.32907815 20.21232856
 78.91999047]
alpha-B2g nocc = 0
   mo_energy = [ 0.08285167  0.28938256  0.81133851  0.90150308  0.90748304  2.21427804
  2.48412621  2.4973053   6.16207253  6.18338402  6.31864944 20.19227697
 78.90672573]
alpha-B3g nocc = 0
   mo_energy = [ 0.08285167  0.28938256  0.81133851  0.90150308  0.90748304  2.21427804
  2.48412621  2.4973053   6.16207253  6.18338402  6.31864944 20.19227697
 78.90672573]
alpha-Au nocc = 0
   mo_energy = [ 0.30011782  0.91135346  2.3787959   6.51551316 25.35688971]
alpha-B1u nocc = 0
   mo_energy = [1.23571279e-02 3.32336980e-02 1.35078179e-01 2.97940476e-01
 3.00117823e-01 4.86872581e-01 9.06232196e-01 9.11353459e-01
 1.58985786e+00 2.37041206e+00 2.37879590e+00 5.01278631e+00
 6.50138413e+00 6.51551316e+00 1.54892879e+01 2.53409291e+01
 2.53568897e+01 4.99490900e+01 1.67244334e+02]
alpha-B2u nocc = 1  HOMO = -0.439035583111466  LUMO = 0.0243933051874925
   mo_energy = [-4.39035583e-01  2.43933052e-02  1.12874325e-01  2.98483652e-01
  3.02869077e-01  4.43602490e-01  9.07502574e-01  9.17817525e-01
  1.55746342e+00  2.37250475e+00  2.38928156e+00  5.01644486e+00
  6.50491004e+00  6.53327792e+00  1.55133076e+01  2.53449157e+01
  2.53768930e+01  4.99705004e+01  1.67255721e+02]
alpha-B3u nocc = 1  HOMO = -0.439035583111474  LUMO = 0.0243933051874932
   mo_energy = [-4.39035583e-01  2.43933052e-02  1.12874325e-01  2.98483652e-01
  3.02869077e-01  4.43602490e-01  9.07502574e-01  9.17817525e-01
  1.55746342e+00  2.37250475e+00  2.38928156e+00  5.01644486e+00
  6.50491004e+00  6.53327792e+00  1.55133076e+01  2.53449157e+01
  2.53768930e+01  4.99705004e+01  1.67255721e+02]
beta-Ag nocc = 2  HOMO = -0.583549944409725  LUMO = 0.0265064762853178
   mo_energy = [-1.13007547e+01 -5.83549944e-01  2.65064763e-02  8.26653778e-02
  8.46800190e-02  1.50001052e-01  2.94298759e-01  3.04983551e-01
  5.89590336e-01  8.43305395e-01  8.78183922e-01  9.03334607e-01
  9.06963816e-01  9.17674047e-01  2.09695386e+00  2.26786479e+00
  2.32762569e+00  2.49368019e+00  2.50353997e+00  2.53388327e+00
  6.18299690e+00  6.20016961e+00  6.25253226e+00  6.35691704e+00
  6.42289591e+00  7.80527805e+00  2.02062326e+01  2.02572432e+01
[...]
 78.93228442]
beta-B2g nocc = 0
   mo_energy = [ 0.08315358  0.296793    0.85133787  0.90422742  0.91110601  2.28188896
  2.49613621  2.51599859  6.18727879  6.22182621  6.37309897 20.21892489
 78.91418641]
beta-B3g nocc = 0
   mo_energy = [ 0.08315358  0.296793    0.85133787  0.90422742  0.91110601  2.28188896
  2.49613621  2.51599859  6.18727879  6.22182621  6.37309897 20.21892489
 78.91418641]
beta-Au nocc = 0
   mo_energy = [ 0.30112092  0.92305995  2.41795246  6.5699131  25.38750103]
beta-B1u nocc = 0
   mo_energy = [1.92530059e-02 4.90677297e-02 1.48832449e-01 2.98588560e-01
 3.01120915e-01 5.05950174e-01 9.13533195e-01 9.23059949e-01
 1.61296183e+00 2.39573793e+00 2.41795246e+00 5.03432538e+00
 6.53782800e+00 6.56991310e+00 1.55033036e+01 2.53617256e+01
 2.53875010e+01 4.99551370e+01 1.67246374e+02]
beta-B2u nocc = 0
   mo_energy = [2.27427756e-02 7.57590842e-02 1.80984582e-01 2.99227960e-01
 3.04357035e-01 5.42827537e-01 9.15901717e-01 9.35326017e-01
 1.66488321e+00 2.40124311e+00 2.44670737e+00 5.09472234e+00
 6.54580199e+00 6.61088359e+00 1.55546941e+01 2.53681602e+01
 2.54198615e+01 4.99861657e+01 1.67260230e+02]
beta-B3u nocc = 0
   mo_energy = [2.27427756e-02 7.57590842e-02 1.80984582e-01 2.99227960e-01
 3.04357035e-01 5.42827537e-01 9.15901717e-01 9.35326017e-01
 1.66488321e+00 2.40124311e+00 2.44670737e+00 5.09472234e+00
 6.54580199e+00 6.61088359e+00 1.55546941e+01 2.53681602e+01
 2.54198615e+01 4.99861657e+01 1.67260230e+02]
multiplicity <S^2> = 2.010442  2S+1 = 3.0069533
E1 = -50.44931673961931  Ecoul = 12.75593934282131
cycle= 55 E= -37.693377396798  delta_E= 2.84e-14  |g|= 2.08e-12  |ddm|= 4.51e-12
    CPU time for cycle= 55      0.34 sec, wall time      0.09 sec
diis-norm(errvec)=2.96251e-12
Linear dependence found in DIIS error vectors.
diis-c [-2.89052492e-16  1.25000000e-01  1.25000000e-01  1.25000000e-01
  1.25000000e-01  1.25000000e-01  1.25000000e-01  1.25000000e-01
  1.25000000e-01]
alpha HOMO (B3u) = -0.439035433827642  LUMO (B1u) = 0.0123572345608646
alpha irrep_nelec = [2, 0, 0, 0, 0, 0, 1, 1]
beta  irrep_nelec = [2, 0, 0, 0, 0, 0, 0, 0]
alpha-Ag nocc = 2  HOMO = -0.829326341048125  LUMO = 0.0248158402927272
   mo_energy = [-1.13457382e+01 -8.29326341e-01  2.48158403e-02  8.24664156e-02
  8.41072485e-02  1.39151035e-01  2.89321159e-01  2.90391212e-01
  5.53037345e-01  8.01391467e-01  8.15677311e-01  9.00768126e-01
  9.03729232e-01  9.12797715e-01  2.03691148e+00  2.20572530e+00
  2.21821436e+00  2.48248706e+00  2.48905570e+00  2.50892535e+00
  6.15941960e+00  6.17004822e+00  6.20213400e+00  6.31528617e+00
  6.32907898e+00  7.75816798e+00  2.01856270e+01  2.02123295e+01
  2.72877095e+01  7.89023082e+01  7.89199914e+01  9.16380000e+01
  3.81195105e+02]
alpha-B1g nocc = 0
   mo_energy = [ 0.08410725  0.29039121  0.80139147  0.90372923  0.91279771  2.2057253
  2.4890557   2.50892535  6.17004822  6.202134    6.32907898 20.21232954
 78.91999142]
alpha-B2g nocc = 0
   mo_energy = [ 0.08285168  0.28938267  0.8113387   0.9015032   0.90748318  2.21427849
  2.48412649  2.49730566  6.16207305  6.18338465  6.31865015 20.19227787
 78.90672664]
alpha-B3g nocc = 0
   mo_energy = [ 0.08285168  0.28938267  0.8113387   0.9015032   0.90748318  2.21427849
  2.48412649  2.49730566  6.16207305  6.18338465  6.31865015 20.19227787
 78.90672664]
alpha-Au nocc = 0
   mo_energy = [ 0.30011788  0.91135365  2.37879631  6.51551387 25.35689066]
alpha-B1u nocc = 0
   mo_energy = [1.23572346e-02 3.32337780e-02 1.35078267e-01 2.97940525e-01
 3.00117878e-01 4.86872819e-01 9.06232359e-01 9.11353653e-01
 1.58985827e+00 2.37041239e+00 2.37879631e+00 5.01278695e+00
 6.50138475e+00 6.51551387e+00 1.54892887e+01 2.53409299e+01
 2.53568907e+01 4.99490909e+01 1.67244335e+02]
alpha-B2u nocc = 1  HOMO = -0.439035433827644  LUMO = 0.0243933149646851
   mo_energy = [-4.39035434e-01  2.43933150e-02  1.12874416e-01  2.98483702e-01
  3.02869146e-01  4.43602756e-01  9.07502744e-01  9.17817783e-01
  1.55746390e+00  2.37250509e+00  2.38928206e+00  5.01644562e+00
  6.50491067e+00  6.53327874e+00  1.55133086e+01  2.53449166e+01
  2.53768940e+01  4.99705013e+01  1.67255722e+02]
alpha-B3u nocc = 1  HOMO = -0.439035433827642  LUMO = 0.0243933149646856
   mo_energy = [-4.39035434e-01  2.43933150e-02  1.12874416e-01  2.98483702e-01
  3.02869146e-01  4.43602756e-01  9.07502744e-01  9.17817783e-01
  1.55746390e+00  2.37250509e+00  2.38928206e+00  5.01644562e+00
  6.50491067e+00  6.53327874e+00  1.55133086e+01  2.53449166e+01
  2.53768940e+01  4.99705013e+01  1.67255722e+02]
beta-Ag nocc = 2  HOMO = -0.583548989700934  LUMO = 0.0265064797994084
   mo_energy = [-1.13007537e+01 -5.83548990e-01  2.65064798e-02  8.26653856e-02
  8.46800183e-02  1.50001082e-01  2.94298842e-01  3.04983597e-01
  5.89590521e-01  8.43305733e-01  8.78184225e-01  9.03334708e-01
  9.06963922e-01  9.17674137e-01  2.09695440e+00  2.26786537e+00
  2.32762632e+00  2.49368051e+00  2.50354032e+00  2.53388367e+00
  6.18299748e+00  6.20017024e+00  6.25253299e+00  6.35691780e+00
  6.42289678e+00  7.80527889e+00  2.02062335e+01  2.02572442e+01
  2.73085663e+01  7.89081578e+01  7.89322844e+01  9.16448461e+01
  3.81197152e+02]
beta-B1g nocc = 0
   mo_energy = [ 0.08468002  0.3049836   0.87818423  0.90696392  0.91767414  2.32762632
  2.50354032  2.53388367  6.20017024  6.25253299  6.42289678 20.25724422
 78.93228442]
beta-B2g nocc = 0
   mo_energy = [ 0.08315358  0.296793    0.85133787  0.90422742  0.91110601  2.28188896
  2.49613621  2.51599859  6.18727879  6.22182621  6.37309897 20.21892489
 78.91418641]
beta-B3g nocc = 0
   mo_energy = [ 0.08315358  0.296793    0.85133787  0.90422742  0.91110601  2.28188896
  2.49613621  2.51599859  6.18727879  6.22182621  6.37309897 20.21892489
 78.91418641]
beta-Au nocc = 0
   mo_energy = [ 0.30112092  0.92305995  2.41795246  6.5699131  25.38750103]
beta-B1u nocc = 0
   mo_energy = [1.92530059e-02 4.90677297e-02 1.48832449e-01 2.98588560e-01
 3.01120915e-01 5.05950174e-01 9.13533195e-01 9.23059949e-01
 1.61296183e+00 2.39573793e+00 2.41795246e+00 5.03432538e+00
 6.53782800e+00 6.56991310e+00 1.55033036e+01 2.53617256e+01
 2.53875010e+01 4.99551370e+01 1.67246374e+02]
beta-B2u nocc = 0
   mo_energy = [2.27427756e-02 7.57590842e-02 1.80984582e-01 2.99227960e-01
 3.04357035e-01 5.42827537e-01 9.15901717e-01 9.35326017e-01
 1.66488321e+00 2.40124311e+00 2.44670737e+00 5.09472234e+00
 6.54580199e+00 6.61088359e+00 1.55546941e+01 2.53681602e+01
 2.54198615e+01 4.99861657e+01 1.67260230e+02]
beta-B3u nocc = 0
   mo_energy = [2.27427756e-02 7.57590842e-02 1.80984582e-01 2.99227960e-01
 3.04357035e-01 5.42827537e-01 9.15901717e-01 9.35326017e-01
 1.66488321e+00 2.40124311e+00 2.44670737e+00 5.09472234e+00
 6.54580199e+00 6.61088359e+00 1.55546941e+01 2.53681602e+01
 2.54198615e+01 4.99861657e+01 1.67260230e+02]
multiplicity <S^2> = 2.010442  2S+1 = 3.0069533
E1 = -50.449316739619505  Ecoul = 12.75593934282152
cycle= 56 E= -37.693377396798  delta_E= 1.42e-14  |g|= 1.82e-12  |ddm|= 3.27e-12
    CPU time for cycle= 56      0.34 sec, wall time      0.09 sec
diis-norm(errvec)=2.56046e-12
Linear dependence found in DIIS error vectors.
diis-c [-2.89052492e-16  1.25000000e-01  1.25000000e-01  1.25000000e-01
  1.25000000e-01  1.25000000e-01  1.25000000e-01  1.25000000e-01
  1.25000000e-01]
alpha HOMO (B2u) = -0.43903543382769  LUMO (B1u) = 0.0123572345608885
alpha irrep_nelec = [2, 0, 0, 0, 0, 0, 1, 1]
beta  irrep_nelec = [2, 0, 0, 0, 0, 0, 0, 0]
alpha-Ag nocc = 2  HOMO = -0.829326341048072  LUMO = 0.0248158402927217
   mo_energy = [-1.13457382e+01 -8.29326341e-01  2.48158403e-02  8.24664156e-02
  8.41072485e-02  1.39151035e-01  2.89321159e-01  2.90391212e-01
  5.53037345e-01  8.01391467e-01  8.15677311e-01  9.00768126e-01
  9.03729232e-01  9.12797715e-01  2.03691148e+00  2.20572530e+00
  2.21821436e+00  2.48248706e+00  2.48905570e+00  2.50892535e+00
  6.15941960e+00  6.17004822e+00  6.20213400e+00  6.31528617e+00
  6.32907898e+00  7.75816798e+00  2.01856270e+01  2.02123295e+01
  2.72877095e+01  7.89023082e+01  7.89199914e+01  9.16380000e+01
  3.81195105e+02]
alpha-B1g nocc = 0
   mo_energy = [ 0.08410725  0.29039121  0.80139147  0.90372923  0.91279771  2.2057253
  2.4890557   2.50892535  6.17004822  6.202134    6.32907898 20.21232954
 78.91999142]
alpha-B2g nocc = 0
   mo_energy = [ 0.08285168  0.28938267  0.8113387   0.9015032   0.90748318  2.21427849
  2.48412649  2.49730566  6.16207305  6.18338465  6.31865015 20.19227787
 78.90672664]
alpha-B3g nocc = 0
   mo_energy = [ 0.08285168  0.28938267  0.8113387   0.9015032   0.90748318  2.21427849
  2.48412649  2.49730566  6.16207305  6.18338465  6.31865015 20.19227787
 78.90672664]
alpha-Au nocc = 0
   mo_energy = [ 0.30011788  0.91135365  2.37879631  6.51551387 25.35689066]
alpha-B1u nocc = 0
   mo_energy = [1.23572346e-02 3.32337780e-02 1.35078267e-01 2.97940525e-01
 3.00117878e-01 4.86872819e-01 9.06232359e-01 9.11353653e-01
 1.58985827e+00 2.37041239e+00 2.37879631e+00 5.01278695e+00
 6.50138475e+00 6.51551387e+00 1.54892887e+01 2.53409299e+01
 2.53568907e+01 4.99490909e+01 1.67244335e+02]
alpha-B2u nocc = 1  HOMO = -0.43903543382769  LUMO = 0.0243933149646874
   mo_energy = [-4.39035434e-01  2.43933150e-02  1.12874416e-01  2.98483702e-01
  3.02869146e-01  4.43602756e-01  9.07502744e-01  9.17817783e-01
  1.55746390e+00  2.37250509e+00  2.38928206e+00  5.01644562e+00
  6.50491067e+00  6.53327874e+00  1.55133086e+01  2.53449166e+01
  2.53768940e+01  4.99705013e+01  1.67255722e+02]
alpha-B3u nocc = 1  HOMO = -0.439035433827698  LUMO = 0.0243933149646857
   mo_energy = [-4.39035434e-01  2.43933150e-02  1.12874416e-01  2.98483702e-01
  3.02869146e-01  4.43602756e-01  9.07502744e-01  9.17817783e-01
  1.55746390e+00  2.37250509e+00  2.38928206e+00  5.01644562e+00
  6.50491067e+00  6.53327874e+00  1.55133086e+01  2.53449166e+01
  2.53768940e+01  4.99705013e+01  1.67255722e+02]
beta-Ag nocc = 2  HOMO = -0.583548989700714  LUMO = 0.0265064797994075
   mo_energy = [-1.13007537e+01 -5.83548990e-01  2.65064798e-02  8.26653856e-02
  8.46800183e-02  1.50001082e-01  2.94298842e-01  3.04983597e-01
  5.89590521e-01  8.43305733e-01  8.78184225e-01  9.03334708e-01
  9.06963922e-01  9.17674137e-01  2.09695440e+00  2.26786537e+00
  2.32762632e+00  2.49368051e+00  2.50354032e+00  2.53388367e+00
  6.18299748e+00  6.20017024e+00  6.25253299e+00  6.35691780e+00
  6.42289678e+00  7.80527889e+00  2.02062335e+01  2.02572442e+01
  2.73085663e+01  7.89081578e+01  7.89322844e+01  9.16448461e+01
  3.81197152e+02]
beta-B1g nocc = 0
   mo_energy = [ 0.08468002  0.3049836   0.87818423  0.90696392  0.91767414  2.32762632
  2.50354032  2.53388367  6.20017024  6.25253299  6.42289678 20.25724422
 78.93228442]
beta-B2g nocc = 0
   mo_energy = [ 0.08315358  0.296793    0.85133787  0.90422742  0.91110601  2.28188896
  2.49613621  2.51599859  6.18727879  6.22182621  6.37309897 20.21892489
 78.91418641]
beta-B3g nocc = 0
   mo_energy = [ 0.08315358  0.296793    0.85133787  0.90422742  0.91110601  2.28188896
  2.49613621  2.51599859  6.18727879  6.22182621  6.37309897 20.21892489
 78.91418641]
beta-Au nocc = 0
   mo_energy = [ 0.30112092  0.92305995  2.41795246  6.5699131  25.38750103]
beta-B1u nocc = 0
   mo_energy = [1.92530059e-02 4.90677297e-02 1.48832449e-01 2.98588560e-01
 3.01120915e-01 5.05950174e-01 9.13533195e-01 9.23059949e-01
 1.61296183e+00 2.39573793e+00 2.41795246e+00 5.03432538e+00
 6.53782800e+00 6.56991310e+00 1.55033036e+01 2.53617256e+01
 2.53875010e+01 4.99551370e+01 1.67246374e+02]
beta-B2u nocc = 0
   mo_energy = [2.27427756e-02 7.57590842e-02 1.80984582e-01 2.99227960e-01
 3.04357035e-01 5.42827537e-01 9.15901717e-01 9.35326017e-01
 1.66488321e+00 2.40124311e+00 2.44670737e+00 5.09472234e+00
 6.54580199e+00 6.61088359e+00 1.55546941e+01 2.53681602e+01
 2.54198615e+01 4.99861657e+01 1.67260230e+02]
beta-B3u nocc = 0
   mo_energy = [2.27427756e-02 7.57590842e-02 1.80984582e-01 2.99227960e-01
 3.04357035e-01 5.42827537e-01 9.15901717e-01 9.35326017e-01
 1.66488321e+00 2.40124311e+00 2.44670737e+00 5.09472234e+00
 6.54580199e+00 6.61088359e+00 1.55546941e+01 2.53681602e+01
 2.54198615e+01 4.99861657e+01 1.67260230e+02]
multiplicity <S^2> = 2.010442  2S+1 = 3.0069533
E1 = -50.44931673961983  Ecoul = 12.755939342821826
cycle= 57 E= -37.693377396798  delta_E= -2.13e-14  |g|= 1.57e-12  |ddm|= 9.56e-13
    CPU time for cycle= 57      0.34 sec, wall time      0.09 sec
alpha HOMO (B3u) = -0.439035433827824  LUMO (B1u) = 0.0123572345609654
alpha irrep_nelec = [2, 0, 0, 0, 0, 0, 1, 1]
beta  irrep_nelec = [2, 0, 0, 0, 0, 0, 0, 0]
alpha-Ag nocc = 2  HOMO = -0.829326341048156  LUMO = 0.0248158402927395
   mo_energy = [-1.13457382e+01 -8.29326341e-01  2.48158403e-02  8.24664156e-02
  8.41072485e-02  1.39151035e-01  2.89321159e-01  2.90391212e-01
  5.53037345e-01  8.01391467e-01  8.15677311e-01  9.00768126e-01
  9.03729232e-01  9.12797715e-01  2.03691148e+00  2.20572530e+00
  2.21821436e+00  2.48248706e+00  2.48905570e+00  2.50892535e+00
  6.15941960e+00  6.17004822e+00  6.20213400e+00  6.31528617e+00
  6.32907898e+00  7.75816798e+00  2.01856270e+01  2.02123295e+01
  2.72877095e+01  7.89023082e+01  7.89199914e+01  9.16380000e+01
  3.81195105e+02]
alpha-B1g nocc = 0
   mo_energy = [ 0.08410725  0.29039121  0.80139147  0.90372923  0.91279771  2.2057253
  2.4890557   2.50892535  6.17004822  6.202134    6.32907898 20.21232954
 78.91999142]
alpha-B2g nocc = 0
   mo_energy = [ 0.08285168  0.28938267  0.8113387   0.9015032   0.90748318  2.21427849
  2.48412649  2.49730566  6.16207305  6.18338465  6.31865015 20.19227787
 78.90672664]
alpha-B3g nocc = 0
   mo_energy = [ 0.08285168  0.28938267  0.8113387   0.9015032   0.90748318  2.21427849
  2.48412649  2.49730566  6.16207305  6.18338465  6.31865015 20.19227787
 78.90672664]
alpha-Au nocc = 0
   mo_energy = [ 0.30011788  0.91135365  2.37879631  6.51551387 25.35689066]
alpha-B1u nocc = 0
   mo_energy = [1.23572346e-02 3.32337780e-02 1.35078267e-01 2.97940525e-01
 3.00117878e-01 4.86872819e-01 9.06232359e-01 9.11353653e-01
 1.58985827e+00 2.37041239e+00 2.37879631e+00 5.01278695e+00
 6.50138475e+00 6.51551387e+00 1.54892887e+01 2.53409299e+01
 2.53568907e+01 4.99490909e+01 1.67244335e+02]
alpha-B2u nocc = 1  HOMO = -0.439035433827826  LUMO = 0.0243933149646874
   mo_energy = [-4.39035434e-01  2.43933150e-02  1.12874416e-01  2.98483702e-01
  3.02869146e-01  4.43602756e-01  9.07502744e-01  9.17817783e-01
  1.55746390e+00  2.37250509e+00  2.38928206e+00  5.01644562e+00
  6.50491067e+00  6.53327874e+00  1.55133086e+01  2.53449166e+01
  2.53768940e+01  4.99705013e+01  1.67255722e+02]
alpha-B3u nocc = 1  HOMO = -0.439035433827824  LUMO = 0.024393314964687
   mo_energy = [-4.39035434e-01  2.43933150e-02  1.12874416e-01  2.98483702e-01
  3.02869146e-01  4.43602756e-01  9.07502744e-01  9.17817783e-01
  1.55746390e+00  2.37250509e+00  2.38928206e+00  5.01644562e+00
  6.50491067e+00  6.53327874e+00  1.55133086e+01  2.53449166e+01
  2.53768940e+01  4.99705013e+01  1.67255722e+02]
beta-Ag nocc = 2  HOMO = -0.583548989699893  LUMO = 0.026506479799414
   mo_energy = [-1.13007537e+01 -5.83548990e-01  2.65064798e-02  8.26653856e-02
  8.46800183e-02  1.50001082e-01  2.94298842e-01  3.04983597e-01
  5.89590521e-01  8.43305733e-01  8.78184225e-01  9.03334708e-01
  9.06963922e-01  9.17674137e-01  2.09695440e+00  2.26786537e+00
  2.32762632e+00  2.49368051e+00  2.50354032e+00  2.53388367e+00
  6.18299748e+00  6.20017024e+00  6.25253299e+00  6.35691780e+00
  6.42289678e+00  7.80527889e+00  2.02062335e+01  2.02572442e+01
  2.73085663e+01  7.89081578e+01  7.89322844e+01  9.16448461e+01
  3.81197152e+02]
beta-B1g nocc = 0
   mo_energy = [ 0.08468002  0.3049836   0.87818423  0.90696392  0.91767414  2.32762632
  2.50354032  2.53388367  6.20017024  6.25253299  6.42289678 20.25724422
 78.93228442]
beta-B2g nocc = 0
   mo_energy = [ 0.08315358  0.296793    0.85133787  0.90422742  0.91110601  2.28188896
  2.49613621  2.51599859  6.18727879  6.22182621  6.37309897 20.21892489
 78.91418641]
beta-B3g nocc = 0
   mo_energy = [ 0.08315358  0.296793    0.85133787  0.90422742  0.91110601  2.28188896
  2.49613621  2.51599859  6.18727879  6.22182621  6.37309897 20.21892489
 78.91418641]
beta-Au nocc = 0
   mo_energy = [ 0.30112092  0.92305995  2.41795246  6.5699131  25.38750103]
beta-B1u nocc = 0
   mo_energy = [1.92530059e-02 4.90677297e-02 1.48832449e-01 2.98588560e-01
 3.01120915e-01 5.05950174e-01 9.13533195e-01 9.23059949e-01
 1.61296183e+00 2.39573793e+00 2.41795246e+00 5.03432538e+00
 6.53782800e+00 6.56991310e+00 1.55033036e+01 2.53617256e+01
 2.53875010e+01 4.99551370e+01 1.67246374e+02]
beta-B2u nocc = 0
   mo_energy = [2.27427756e-02 7.57590842e-02 1.80984582e-01 2.99227960e-01
 3.04357035e-01 5.42827537e-01 9.15901717e-01 9.35326017e-01
 1.66488321e+00 2.40124311e+00 2.44670737e+00 5.09472234e+00
 6.54580199e+00 6.61088359e+00 1.55546941e+01 2.53681602e+01
 2.54198615e+01 4.99861657e+01 1.67260230e+02]
beta-B3u nocc = 0
   mo_energy = [2.27427756e-02 7.57590842e-02 1.80984582e-01 2.99227960e-01
 3.04357035e-01 5.42827537e-01 9.15901717e-01 9.35326017e-01
 1.66488321e+00 2.40124311e+00 2.44670737e+00 5.09472234e+00
 6.54580199e+00 6.61088359e+00 1.55546941e+01 2.53681602e+01
 2.54198615e+01 4.99861657e+01 1.67260230e+02]
multiplicity <S^2> = 2.010442  2S+1 = 3.0069533
E1 = -50.449316739620585  Ecoul = 12.755939342822604
Extra cycle  E= -37.693377396798  delta_E= 2.13e-14  |g|= 8.6e-13  |ddm|= 9.56e-13
    CPU time for scf_cycle     25.78 sec, wall time      6.65 sec
    CPU time for SCF     25.81 sec, wall time      6.71 sec
converged SCF energy = -37.693377396798  <S^2> = 2.010442  2S+1 = 3.0069533
irreps of each MO ['Ag' 'Ag' 'B2u' 'B3u' 'B1u' 'B2u' 'B3u' 'Ag' 'B1u' 'Ag' 'B2g' 'B3g' 'Ag'
 'B1g' 'B2u' 'B3u' 'B1u' 'Ag' 'Ag' 'B2g' 'B3g' 'Ag' 'B1g' 'B1u' 'B2u'
 'B3u' 'Au' 'B1u' 'B2u' 'B3u' 'B2u' 'B3u' 'B1u' 'Ag' 'Ag' 'B1g' 'B2g'
 'B3g' 'Ag' 'Ag' 'B2g' 'B3g' 'Ag' 'B1g' 'B1u' 'B2g' 'B3g' 'B2u' 'B3u' 'Au'
 'B1u' 'Ag' 'B1g' 'B2u' 'B3u' 'B2u' 'B3u' 'B1u' 'Ag' 'Ag' 'B1g' 'B2g'
 'B3g' 'Ag' 'B1u' 'B2u' 'B3u' 'Au' 'B1u' 'B2u' 'B3u' 'Ag' 'B2g' 'B3g' 'Ag'
 'B1g' 'B2g' 'B3g' 'Ag' 'B1g' 'B1u' 'B2u' 'B3u' 'Ag' 'B2g' 'B3g' 'Ag'
 'B1g' 'B2g' 'B3g' 'Ag' 'B1g' 'Ag' 'B2g' 'B3g' 'Ag' 'B1g' 'B1u' 'B2u'
 'B3u' 'Au' 'B1u' 'B2u' 'B3u' 'Ag' 'B1u' 'B2u' 'B3u' 'Ag' 'B2g' 'B3g' 'Ag'
 'B1g' 'B1u' 'B2u' 'B3u' 'Au' 'B1u' 'B2u' 'B3u' 'Ag' 'B1u' 'B2u' 'B3u'
 'Ag' 'B2g' 'B3g' 'Ag' 'B1g' 'Ag' 'B1u' 'B2u' 'B3u' 'Ag']
irreps of each MO ['Ag' 'Ag' 'B1u' 'B2u' 'B3u' 'Ag' 'B1u' 'B2u' 'B3u' 'Ag' 'B2g' 'B3g' 'Ag'
 'B1g' 'B1u' 'Ag' 'B2u' 'B3u' 'Ag' 'B2g' 'B3g' 'B1u' 'B2u' 'B3u' 'Au'
 'B1u' 'B2u' 'B3u' 'Ag' 'B1g' 'B1u' 'B2u' 'B3u' 'Ag' 'Ag' 'B2g' 'B3g' 'Ag'
 'B1g' 'Ag' 'B2g' 'B3g' 'Ag' 'B1g' 'B2g' 'B3g' 'B1u' 'B2u' 'B3u' 'Ag'
 'B1g' 'Au' 'B1u' 'B2u' 'B3u' 'B1u' 'B2u' 'B3u' 'Ag' 'Ag' 'B2g' 'B3g' 'Ag'
 'B1g' 'B1u' 'B2u' 'B3u' 'Au' 'B1u' 'B2u' 'B3u' 'Ag' 'B2g' 'B3g' 'Ag'
 'B1g' 'B2g' 'B3g' 'Ag' 'B1g' 'B1u' 'B2u' 'B3u' 'Ag' 'B2g' 'B3g' 'Ag'
 'B1g' 'B2g' 'B3g' 'Ag' 'B1g' 'Ag' 'B2g' 'B3g' 'Ag' 'B1g' 'B1u' 'B2u'
 'B3u' 'Au' 'B1u' 'B2u' 'B3u' 'Ag' 'B1u' 'B2u' 'B3u' 'Ag' 'B2g' 'B3g' 'Ag'
 'B1g' 'B1u' 'B2u' 'B3u' 'Au' 'B1u' 'B2u' 'B3u' 'Ag' 'B1u' 'B2u' 'B3u'
 'Ag' 'B2g' 'B3g' 'Ag' 'B1g' 'Ag' 'B1u' 'B2u' 'B3u' 'Ag']
irreps of each MO ['Ag' 'Ag' 'B2u' 'B3u' 'B1u' 'B3u' 'B2u' 'Ag' 'B1u' 'Ag' 'B2g' 'B3g' 'B1g'
 'Ag' 'B3u' 'B2u' 'B1u' 'Ag' 'Ag' 'B2g' 'B3g' 'Ag' 'B1g' 'B1u' 'B2u' 'B3u'
 'Au' 'B1u' 'B3u' 'B2u' 'B2u' 'B3u' 'B1u' 'Ag' 'Ag' 'B1g' 'B2g' 'B3g' 'Ag'
 'Ag' 'B2g' 'B3g' 'Ag' 'B1g' 'B1u' 'B3g' 'B2g' 'B3u' 'B2u' 'Au' 'B1u'
 'B1g' 'Ag' 'B2u' 'B3u' 'B3u' 'B2u' 'B1u' 'Ag' 'B1g' 'Ag' 'B2g' 'B3g' 'Ag'
 'B1u' 'B2u' 'B3u' 'Au' 'B1u' 'B3u' 'B2u' 'Ag' 'B2g' 'B3g' 'Ag' 'B1g'
 'B2g' 'B3g' 'Ag' 'B1g' 'B1u' 'B2u' 'B3u' 'Ag' 'B3g' 'B2g' 'Ag' 'B1g'
 'B3g' 'B2g' 'B1g' 'Ag' 'Ag' 'B2g' 'B3g' 'Ag' 'B1g' 'B1u' 'B2u' 'B3u' 'Au'
 'B1u' 'B3u' 'B2u' 'Ag' 'B1u' 'B2u' 'B3u' 'Ag' 'B3g' 'B2g' 'Ag' 'B1g'
 'B1u' 'B3u' 'B2u' 'Au' 'B1u' 'B2u' 'B3u' 'Ag' 'B1u' 'B2u' 'B3u' 'Ag'
 'B3g' 'B2g' 'B1g' 'Ag' 'Ag' 'B1u' 'B2u' 'B3u' 'Ag']
