Starting run at: Thu 21 Aug 2025 04:28:26 AM EDT
 **********************************************************************
                          MRCC program system
 **********************************************************************
 
                              Written by
     Mihaly Kallay, Peter R. Nagy, David Mester, Laszlo Gyevi-Nagy,
        Jozsef Csoka, P. Bernat Szabo, Zoltan Rolik, Gyula Samu,
      Bence Hegely, Bence Ladoczki, Klara Petrov, Jozsef Csontos,
     Adam Ganyecz, Istvan Ladjanszki, Lorant Szegedy, Mate Farkas,
          Pal D. Mezei, Reka A. Horvath, and Balazs D. Lorincz
 
        Department of Physical Chemistry and Materials Science
            Budapest University of Technology and Economics
                  Budapest P.O.Box 91, H-1521 Hungary
 
                              www.mrcc.hu
 
                            Version: 25.1.1

 ************************ 2025-08-21 04:28:29 *************************
 Executing minp...

 Reading input from MINP...
 
 Input file:
 
basis=aCV5Z-EMSL-U
#iface=cfour
uncontract=off
calc=CCSDT(Q)
ccprog=mrcc
mem=25GB
core=corr
itol=18
scftol=12
cctol=6
ccmaxit=999
scfmaxit=9999
scfiguess=ao
scftype=UHF
#rohftype=semicanonical
rest=2
charge=+0
mult=3
refdet=serialno
1-3
4,5

symm=4
occ=2,0,0,0,0,1,1,1/2,0,0,0,0,0,0,1
geom
O

#Li 1 R
#R=3.065

#unit=angstroms

tprint=0.01
verbosity=3
#nstate=4
 
 
 Checking keyword combinations...
 
 Keywords:
 
 active=none
 agrid=ld0006-ld0590
 agrid_pssp=ld0006-ld0194
 agrid_pssp_sm=ld0006-ld0074
 basis=acv5z-emsl-u
 basis_sm=none
 basopt=off
 bfbasis=none
 bfgsmem=10
 bfgstol=1.0d-3
 boysalg=jacobi
 bpcompo=0.985
 bpcompv=0.98
 bpdfo=0.985
 bpocc=0.985
 bppdo=0.985
 bppdv=0.98
 bpedo=0.985
 bpedv=0.98
 bp_subsyso=0.95
 bp_subsysv=0.95
 cabscorr=off
 cabsdual=off
 calc=ccsdt(q)
 ccmaxit=999
 ccprog=mrcc
 ccsdalg=disk
 ccsdmkl=seq
 ccsdrest=off
 ccsdthreads=2
 cctol=6
 charge=+0
 cialg=disk
 ciguess=off
 cmpgrp=auto
 comprest=off
 coord_sys=ric
 core=corr
 corembed=off
 csapprox=off
 cvs=off
 dboc=off
 deltaf12=off
 delocsomofact=
 dendec=cholesky
 dens=0
 denscorr=0
 dfalg=lineq
 dfbasis_cab=none
 dfbasis_cor=none
 dfbasis_scf=none
 dfbasis_scf_sm=auto
 dfintran=ovirt
 dft=off
 dhexc=adc(2)
 diag=david
 docc=
 domrad=10.d0
 drpaalg=fit
 dual=off
 dual_df=off
 dyson=off
 ecp=auto
 edisp=off
 edisp_embed=off
 embed=off
 epairestfact=off
 epairscale=1.d0
 etemp=300
 epert=none
 eps=
 espcharge=off
 excrad=0.d0
 excrad_f12=0.d0
 excrad_fin=0.000000000D+00
 fastdbbsc=v2
 fitting=coulomb
 fmm=off
 fmmord=8
 fnonorb=
 freq=off
 gamma=1.d0
 gauss=spher
 geom=zmat
 gopt=off
 ghost=none
 gtol=7
 grdens=off
 grid=auto
 grid_sm=auto
 gridbatch_cos=2000
 grtol=10
 guido_ct=off
 hamilton=dc
 iface=none
 incore=off
 intalg=auto
 ip_ea=off
 itol=18
 laptol=1.d-2
 lccoporder=trffirst
 lcorthr=normal
 lccrest=off
 ldfgrad_tol=8
 lmp2dens=on
 lnoepso=0.d0
 lnoepsv=1e-6
 localcc=off
 localcorrsymm=off
 locintrf=disk
 mact=
 maxact=off
 maxdim=200
 maxex=0
 maxmicroit=100
 mcscfiguess=hf
 mem=25gb
 mmprog=
 molden=on
 mp2ongrid=off
 mpitasks=1
 mulmet=0
 mult=3
 nab=off
 nacto=0
 nactv=0
 naf_amp=3.16d-3
 naf_cor=off
 naf_f12=off
 naf_scf=off
 nafalg=albe
 nafdens=off
 naftyp=
 nchol=auto
 ndeps=1e-3
 nstate=1
 nsing=0
 nto=off
 ntrip=0
 num_grad=off
 occ=2,0,0,0,0,1,1,1/2,0,0,0,0,0,0,1
 occri=off
 oniom=off
 oniom_eechg=off
 oniom_pcm=off
 oniom_qcorr=off
 optalg=
 optmaxit=50
 optetol=1e-6
 optex=0
 optgtol=1e-4
 optstol=1e-3
 orblocc=off
 orbloce=off
 orbloco=off
 orblocv=off
 orblocguess=cholesky
 osveps=1e-3
 ovirt=off
 ovltol=1e-7
 ovosnorb=80.0
 pao_subsys_tol=1e-3
 pao_tol=1e-3
 pcm=off
 popul=off
 pressure=100000
 pssp=off
 ptfreq=0.0
 ptthreads=2
 qmreg=
 qmmm=off
 qro=off
 qscf=off
 redcost_exc=off
 redcost_tddft=off
 refdet=serialno
 rest=2
 rgrid=log3
 rism=off
 rohfcore=semicanonical
 rohftype=semicanonical
 scfalg=auto
 scf_conv=auto
 scfdamp=0.0d0
 scfdamp_mode=off
 scfdamp_end=9999
 scfdamp_dampstep=0.d0
 scfdamp_dtol=0.0d0
 scfdamp_maxfact=0.0d0
 scfdamp_minfact=0.0d0
 scfdiis=on
 scfdiis_dtol=0.0d0
 scfdiis_end=9999
 scfdiis_start=2
 scfdiis_step=1
 scfdiis_watch=off
 scfdiis_wrange=10
 scfdiis_wlimit=5
 scfdiis_delmax=2
 scfdtol=13
 scfext=10
 scfguessdens=
 scfiguess=ao
 scfloc=off
 scflshift=0.20
 scflshift_end=8
 scflshift_dtol=0.0
 scflshift_gaptol=0.20
 scfmaxit=9999
 scftype=uhf
 scftol=12
 scspe=1.d0
 scsph=1.d0
 scsps=1.2d0
 scsps_t=1.2d0
 scspt=0.33333333333333
 scspt_t=0.33333333333333
 scspv=1.d0
 spairtol=1e-4
 sqmprog=
 subminp=top
 subsys_bopu=on
 symm=4
 talg=occ
 temp=298.15
 test=off
 theodore=off
 tlmo=0.999
 tpao=0.94
 tprint=0.01
 uncontract=off
 unit=angs
 usedisk=2
 verbosity=3
 wpairtol=0.100000000E-05
 ispstart=
 ispend=

 ************************ 2025-08-21 04:28:30 *************************
 Executing integ...

 Allocation of 25.0 Gbytes of memory...
 
 Number of atoms:                  1
 Charge:                           0
 Number of electrons:              8
 Number of core electrons:         2
 Spin multiplicity:                3
 
                 Cartesian coordinates [bohr]      Atomic mass [AMU]  Z
   1  O     0.00000000    0.00000000    0.00000000    15.994915       8
 
 This molecule is a spherical top.
 
 Rotational constants [cm-1]: 

 
 Point group: Oh  
 Computational point group: D2h 
 
 Cartesian coordinates in standard orientation [bohr]
   1  O     0.00000000    0.00000000    0.00000000
 
 Nuclear repulsion energy [au]:          0.000000000000
 
 
 Basis set information:
 
 Maximum angular momentum: h
 Maximum number of contracted Gaussians:   19
 Maximum number of primitive Gaussians:    19
 Spherical harmonic GTOs are used.
 
   1  O  acv5z-emsl-u [ 19s 13p 8d 6f 4g 2h | 19s 13p 8d 6f 4g 2h ]
 
 Basis functions:
            1             2             3             4             5             6             7             8             9            10
    0    1O1s          1O2s          1O3s          1O4s          1O5s          1O6s          1O7s          1O8s          1O9s          1O10s     
    1    1O11s         1O12s         1O13s         1O14s         1O15s         1O16s         1O17s         1O18s         1O19s         1O1pz     
    2    1O1py         1O1px         1O2pz         1O2py         1O2px         1O3pz         1O3py         1O3px         1O4pz         1O4py     
    3    1O4px         1O5pz         1O5py         1O5px         1O6pz         1O6py         1O6px         1O7pz         1O7py         1O7px     
    4    1O8pz         1O8py         1O8px         1O9pz         1O9py         1O9px         1O10pz        1O10py        1O10px        1O11pz    
    5    1O11py        1O11px        1O12pz        1O12py        1O12px        1O13pz        1O13py        1O13px        1O1d-2        1O1d-1    
    6    1O1d0         1O1d+1        1O1d+2        1O2d-2        1O2d-1        1O2d0         1O2d+1        1O2d+2        1O3d-2        1O3d-1    
    7    1O3d0         1O3d+1        1O3d+2        1O4d-2        1O4d-1        1O4d0         1O4d+1        1O4d+2        1O5d-2        1O5d-1    
    8    1O5d0         1O5d+1        1O5d+2        1O6d-2        1O6d-1        1O6d0         1O6d+1        1O6d+2        1O7d-2        1O7d-1    
    9    1O7d0         1O7d+1        1O7d+2        1O8d-2        1O8d-1        1O8d0         1O8d+1        1O8d+2        1O1f-3        1O1f-2    
   10    1O1f-1        1O1f0         1O1f+1        1O1f+2        1O1f+3        1O2f-3        1O2f-2        1O2f-1        1O2f0         1O2f+1    
   11    1O2f+2        1O2f+3        1O3f-3        1O3f-2        1O3f-1        1O3f0         1O3f+1        1O3f+2        1O3f+3        1O4f-3    
   12    1O4f-2        1O4f-1        1O4f0         1O4f+1        1O4f+2        1O4f+3        1O5f-3        1O5f-2        1O5f-1        1O5f0     
   13    1O5f+1        1O5f+2        1O5f+3        1O6f-3        1O6f-2        1O6f-1        1O6f0         1O6f+1        1O6f+2        1O6f+3    
   14    1O1g-4        1O1g-3        1O1g-2        1O1g-1        1O1g0         1O1g+1        1O1g+2        1O1g+3        1O1g+4        1O2g-4    
   15    1O2g-3        1O2g-2        1O2g-1        1O2g0         1O2g+1        1O2g+2        1O2g+3        1O2g+4        1O3g-4        1O3g-3    
   16    1O3g-2        1O3g-1        1O3g0         1O3g+1        1O3g+2        1O3g+3        1O3g+4        1O4g-4        1O4g-3        1O4g-2    
   17    1O4g-1        1O4g0         1O4g+1        1O4g+2        1O4g+3        1O4g+4        1O1h-5        1O1h-4        1O1h-3        1O1h-2    
   18    1O1h-1        1O1h0         1O1h+1        1O1h+2        1O1h+3        1O1h+4        1O1h+5        1O2h-5        1O2h-4        1O2h-3    
   19    1O2h-2        1O2h-1        1O2h0         1O2h+1        1O2h+2        1O2h+3        1O2h+4        1O2h+5    
 
 Maximum number of basis functions per shell:   42
 Total number of basis functions:    198
 
 
 Character table for point group D2h:
 
          E  C2z C2y C2x  i  Qxy Qxz Qyz 
    Ag    1   1   1   1   1   1   1   1
    B1g   1   1  -1  -1   1   1  -1  -1
    B2g   1  -1   1  -1   1  -1   1  -1
    B3g   1  -1  -1   1   1  -1  -1   1
    Au    1   1   1   1  -1  -1  -1  -1
    B1u   1   1  -1  -1  -1  -1   1   1
    B2u   1  -1   1  -1  -1   1  -1   1
    B3u   1  -1  -1   1  -1   1   1  -1
 
 Number of basis functions per irrep:
    Ag     47
    B1g    16
    B2g    16
    B3g    16
    Au     10
    B1u    31
    B2u    31
    B3u    31
 
 
 Calculation of overlap integrals...
 CPU time [min]:     0.013                   Wall time [min]:     0.015
 
 Calculation of the square root of the overlap matrix...
 1 AOs are eliminated for irrep 1.
 Minimum eigenvalue of the overlap matrix: 0.760293E-08
 Warning! Near linear dependence in the AO basis set.
 This may result in convergence problems.
 CPU time [min]:     0.014                   Wall time [min]:     0.016
 
 Calculation of kinetic energy integrals...
 CPU time [min]:     0.015                   Wall time [min]:     0.016
 Calculation of nuclear attraction integrals...
 CPU time [min]:     0.017                   Wall time [min]:     0.017
 
 Calculation of prescreening integrals...
 Memory requirement   1.954 Gb/thread, ******* Mb/thread,   7.816 Gb total
 CPU time [min]:     0.044                   Wall time [min]:     0.034
 
 Calculation of two-electron integrals...
 Memory requirement   1.954 Gb/thread, ******* Mb/thread,   7.816 Gb total
   1% done.
  25% done.
  63% done.
 100% done.
 CPU time [min]:     0.247                   Wall time [min]:     0.228

 ************************ 2025-08-21 04:28:44 *************************
 Executing scf...

 @scfsetup: integrals taken from disk
            mrcc/integ binary format
 @scfsetup: calc on blockdiagonal matrices
            using symmetry adapted basis
 @scfsetup: diis switched on
 @scfsetup: number of steps to extrapolate from  10
 @scfsetup: tolerance in energy deviation    0.100000E-11
            tolerance in density deviation    0.100000E-12
 @scfsetup: maximum number of iterations:9999
 @scfsetup: unrestricted hf calc
 @scfsetup: starting scf from diagonal ao guess
 @scfsetup: occupation set:
            by user in MINP
 @scfsetup: the forced occuapation is
 ALPHA OCC:   2   0   0   0   0   1   1   1
 BETA  OCC:   2   0   0   0   0   0   0   1
 @scfsetup: Parameter-set for SCF acceleration: normal
 @scfsetup: diis runs from iteration:   2
 @scfsetup: diis runs to iteration:9999
 @scfsetup: diis runs in every iteration
 @scfsetup: diiswatch is disabled                   
 @scfsetup: diis dtol criteria to switch on:      0.0000E+00
           (or the iteration number below is reached)
 @scfsetup: static damping scheme
            iteration step criteria to turn damping off: 3
 @scfsetup: dynamic level shifting
            tolarance in HOMO-LUMO gap:  0.200
            tolarance in density deviation:     0.0000E+00
            iteration step criteria to turn level shifting off: 8
 Allocation of 25.0 Gbytes of memory...
 ======================================================================
 ITERATION STEP   1
 CPU time [min]:     0.005                   Wall time [min]:     0.007
 

 SCF control                  : initial
 Damping factor/level shift   : 0.000/0.200
 DIIS [start/end/frequency]   :   2 /*** /  1

 Gradient norm:      0.0000E+00
 RMS of alpha [F,P] :                               3227.86788907088476
 RMS of beta  [F,P] :                                 10.79850294219239
 RMS of alpha difference density:                      0.30866658788394
 RMS of beta  difference density:                      0.30688546467077
 Gap [au]:  0.00000000
 ALPHA OCC:   2   0   0   0   0   1   1   1
 BETA  OCC:   2   0   0   0   0   0   0   1
 
 ***HARTREE-FOCK ENERGY IN STEP   1 IS     548116.5461078720400110 [AU]
 ======================================================================
 ITERATION STEP   2
 CPU time [min]:     0.022                   Wall time [min]:     0.017
 

 SCF control                  : diis
 Damping factor/level shift   : 0.000/0.200
 DIIS [start/end/frequency]   :   2 /*** /  1

 Gradient norm:      9.2724E+00
 DIIS is running in this iteration step.
 RMS of alpha [F,P] :                                  0.06716714176715
 RMS of beta  [F,P] :                                  0.01601343806079
 RMS of alpha difference density:                      0.30682649851072
 RMS of beta  difference density:                      0.30583138531848
 Gap [au]:  0.00000000
 ALPHA OCC:   2   0   0   0   0   1   1   1
 BETA  OCC:   2   0   0   0   0   0   0   1
 
 ***HARTREE-FOCK ENERGY IN STEP   2 IS        -13.2373174795429804 [AU]
 
 Step comparison  Energy Drift [au]  DIIS error drift  Gradient drift
        1            5.4813E+05         3.2278E+03      -9.2724E+00
        2            1.3237E+01         1.0000E-13      -9.2724E+00
 Warning! The gradient goes uphill (with respect to previous step).
 Warning! The gradient goes uphill (with respect to step   1 ).
 ======================================================================
 ITERATION STEP   3
 CPU time [min]:     0.052                   Wall time [min]:     0.060
 

 SCF control                  : diis
 Damping factor/level shift   : 0.000/0.200
 DIIS [start/end/frequency]   :   2 /*** /  1

 Gradient norm:      6.7747E+00
 DIIS is running in this iteration step.
 RMS of alpha [F,P] :                                  0.10765769747342
 RMS of beta  [F,P] :                                  0.12393467123709
 RMS of alpha difference density:                      0.00410261871733
 RMS of beta  difference density:                      0.00415787821296
 Gap [au]:  0.18698489
 ALPHA OCC:   2   0   0   0   0   1   1   1
 BETA  OCC:   2   0   0   0   0   0   0   1
 
 ***HARTREE-FOCK ENERGY IN STEP   3 IS        -67.4661525551142915 [AU]
 
 Step comparison  Energy Drift [au]  DIIS error drift  Gradient drift
        2            5.4229E+01        -9.5115E-02       2.4977E+00
 Warning! The DIIS error goes uphill (with respect to previous step).
 Warning! The DIIS error goes uphill (with respect to step   2 ).
 Warning! The gradient goes uphill (with respect to step   1 ).
 ======================================================================
 ITERATION STEP   4
 CPU time [min]:     0.068                   Wall time [min]:     0.066
 

 SCF control                  : diis
 Damping factor/level shift   : 0.000/0.200
 DIIS [start/end/frequency]   :   2 /*** /  1

 Gradient norm:      5.1688E+00
 DIIS is running in this iteration step.
 RMS of alpha [F,P] :                                  0.08781384067141
 RMS of beta  [F,P] :                                  0.10093991031601
 RMS of alpha difference density:                      0.00835891550761
 RMS of beta  difference density:                      0.00813250099766
 Gap [au]:  0.53130391
 ALPHA OCC:   2   0   0   0   0   1   1   1
 BETA  OCC:   2   0   0   0   0   0   0   1
 
 ***HARTREE-FOCK ENERGY IN STEP   4 IS        -69.3994968347518011 [AU]
 
 Step comparison  Energy Drift [au]  DIIS error drift  Gradient drift
        3            1.9333E+00         3.0373E-02       1.6059E+00
        2            5.6162E+01        -6.4742E-02      -5.1688E+00
 Warning! The DIIS error goes uphill (with respect to step   2 ).
 Warning! The gradient goes uphill (with respect to step   1 ).
 ======================================================================
 ITERATION STEP   5
 CPU time [min]:     0.085                   Wall time [min]:     0.072
 

 SCF control                  : diis
 Damping factor/level shift   : 0.000/0.000
 DIIS [start/end/frequency]   :   2 /*** /  1

 Gradient norm:      3.1403E+00
 DIIS is running in this iteration step.
 RMS of alpha [F,P] :                                  0.04757742441696
 RMS of beta  [F,P] :                                  0.05405415405909
 RMS of alpha difference density:                      0.00762782149075
 RMS of beta  difference density:                      0.00630377064681
 Gap [au]:  0.66682511
 ALPHA OCC:   2   0   0   0   0   1   1   1
 BETA  OCC:   2   0   0   0   0   0   0   1
 
 ***HARTREE-FOCK ENERGY IN STEP   5 IS        -72.7864211689677632 [AU]
 
 Step comparison  Energy Drift [au]  DIIS error drift  Gradient drift
        4            3.3869E+00         6.1781E-02       2.0285E+00
        2            5.9549E+01        -2.9605E-03      -3.1403E+00
 Warning! The DIIS error goes uphill (with respect to step   2 ).
 Warning! The gradient goes uphill (with respect to step   1 ).
 ======================================================================
 ITERATION STEP   6
 CPU time [min]:     0.104                   Wall time [min]:     0.079
 

 SCF control                  : diis
 Damping factor/level shift   : 0.000/0.000
 DIIS [start/end/frequency]   :   2 /*** /  1

 Gradient norm:      6.0381E-01
 DIIS is running in this iteration step.
 RMS of alpha [F,P] :                                  0.00816005287749
 RMS of beta  [F,P] :                                  0.00916558380936
 RMS of alpha difference density:                      0.00242251623289
 RMS of beta  difference density:                      0.00178645043323
 Gap [au]:  0.58504722
 ALPHA OCC:   2   0   0   0   0   1   1   1
 BETA  OCC:   2   0   0   0   0   0   0   1
 
 ***HARTREE-FOCK ENERGY IN STEP   6 IS        -74.7239820600003668 [AU]
 
 Step comparison  Energy Drift [au]  DIIS error drift  Gradient drift
        5            1.9376E+00         5.9738E-02       2.5365E+00
        6            6.1487E+01         5.6778E-02      -6.0381E-01
 Warning! The gradient goes uphill (with respect to step   1 ).
 ======================================================================
 ITERATION STEP   7
 CPU time [min]:     0.120                   Wall time [min]:     0.085
 

 SCF control                  : diis
 Damping factor/level shift   : 0.000/0.000
 DIIS [start/end/frequency]   :   2 /*** /  1

 Gradient norm:      5.5109E-02
 DIIS is running in this iteration step.
 RMS of alpha [F,P] :                                  0.00044414280110
 RMS of beta  [F,P] :                                  0.00054330587930
 RMS of alpha difference density:                      0.00033110193884
 RMS of beta  difference density:                      0.00041191558387
 Gap [au]:  0.58187608
 ALPHA OCC:   2   0   0   0   0   1   1   1
 BETA  OCC:   2   0   0   0   0   0   0   1
 
 ***HARTREE-FOCK ENERGY IN STEP   7 IS        -74.8181096207440248 [AU]
 
 Step comparison  Energy Drift [au]  DIIS error drift  Gradient drift
        6            9.4128E-02         1.1570E-02       5.4870E-01
 Warning! The gradient goes uphill (with respect to step   1 ).
 ======================================================================
 ITERATION STEP   8
 CPU time [min]:     0.137                   Wall time [min]:     0.091
 

 SCF control                  : diis
 Damping factor/level shift   : 0.000/0.000
 DIIS [start/end/frequency]   :   2 /*** /  1

 Gradient norm:      9.2105E-03
 DIIS is running in this iteration step.
 RMS of alpha [F,P] :                                  0.00003802406655
 RMS of beta  [F,P] :                                  0.00006683758092
 RMS of alpha difference density:                      0.00005667853541
 RMS of beta  difference density:                      0.00007226168329
 Gap [au]:  0.58047612
 ALPHA OCC:   2   0   0   0   0   1   1   1
 BETA  OCC:   2   0   0   0   0   0   0   1
 
 ***HARTREE-FOCK ENERGY IN STEP   8 IS        -74.8188492782886101 [AU]
 
 Step comparison  Energy Drift [au]  DIIS error drift  Gradient drift
        7            7.3966E-04         6.2485E-04       4.5899E-02
 Warning! The gradient goes uphill (with respect to step   1 ).
 ======================================================================
 ITERATION STEP   9
 CPU time [min]:     0.156                   Wall time [min]:     0.098
 

 SCF control                  : diis
 Damping factor/level shift   : 0.000/0.000
 DIIS [start/end/frequency]   :   2 /*** /  1

 Gradient norm:      2.0640E-03
 DIIS is running in this iteration step.
 RMS of alpha [F,P] :                                  0.00001346699624
 RMS of beta  [F,P] :                                  0.00001799463164
 RMS of alpha difference density:                      0.00000823773441
 RMS of beta  difference density:                      0.00001474688798
 Gap [au]:  0.57983964
 ALPHA OCC:   2   0   0   0   0   1   1   1
 BETA  OCC:   2   0   0   0   0   0   0   1
 
 ***HARTREE-FOCK ENERGY IN STEP   9 IS        -74.8188733886826327 [AU]
 
 Step comparison  Energy Drift [au]  DIIS error drift  Gradient drift
        8            2.4110E-05         5.4421E-05       7.1465E-03
 Warning! The gradient goes uphill (with respect to step   1 ).
 ======================================================================
 ITERATION STEP  10
 CPU time [min]:     0.173                   Wall time [min]:     0.104
 

 SCF control                  : diis
 Damping factor/level shift   : 0.000/0.000
 DIIS [start/end/frequency]   :   2 /*** /  1

 Gradient norm:      6.8856E-04
 DIIS is running in this iteration step.
 RMS of alpha [F,P] :                                  0.00000579767398
 RMS of beta  [F,P] :                                  0.00000690357552
 RMS of alpha difference density:                      0.00000422565608
 RMS of beta  difference density:                      0.00000502605284
 Gap [au]:  0.57948757
 ALPHA OCC:   2   0   0   0   0   1   1   1
 BETA  OCC:   2   0   0   0   0   0   0   1
 
 ***HARTREE-FOCK ENERGY IN STEP  10 IS        -74.8188750891175403 [AU]
 
 Step comparison  Energy Drift [au]  DIIS error drift  Gradient drift
        9            1.7004E-06         1.3461E-05       1.3754E-03
 Warning! The gradient goes uphill (with respect to step   1 ).
 ======================================================================
 ITERATION STEP  11
 CPU time [min]:     0.189                   Wall time [min]:     0.110
 

 SCF control                  : diis
 Damping factor/level shift   : 0.000/0.000
 DIIS [start/end/frequency]   :   2 /*** /  1

 Gradient norm:      2.0202E-04
 DIIS is running in this iteration step.
 RMS of alpha [F,P] :                                  0.00000183401393
 RMS of beta  [F,P] :                                  0.00000174138594
 RMS of alpha difference density:                      0.00000093798273
 RMS of beta  difference density:                      0.00000152796874
 Gap [au]:  0.57947068
 ALPHA OCC:   2   0   0   0   0   1   1   1
 BETA  OCC:   2   0   0   0   0   0   0   1
 
 ***HARTREE-FOCK ENERGY IN STEP  11 IS        -74.8188753369249184 [AU]
 
 Step comparison  Energy Drift [au]  DIIS error drift  Gradient drift
       10            2.4781E-07         6.4861E-06       4.8654E-04
 Warning! The gradient goes uphill (with respect to step   1 ).
 ======================================================================
 ITERATION STEP  12
 CPU time [min]:     0.206                   Wall time [min]:     0.116
 

 SCF control                  : diis
 Damping factor/level shift   : 0.000/0.000
 DIIS [start/end/frequency]   :   2 /*** /  1

 Gradient norm:      2.7105E-05
 DIIS is running in this iteration step.
 RMS of alpha [F,P] :                                  0.00000027253908
 RMS of beta  [F,P] :                                  0.00000024566155
 RMS of alpha difference density:                      0.00000013393441
 RMS of beta  difference density:                      0.00000021996995
 Gap [au]:  0.57947689
 ALPHA OCC:   2   0   0   0   0   1   1   1
 BETA  OCC:   2   0   0   0   0   0   0   1
 
 ***HARTREE-FOCK ENERGY IN STEP  12 IS        -74.8188753496256993 [AU]
 
 Step comparison  Energy Drift [au]  DIIS error drift  Gradient drift
       11            1.2701E-08         2.1621E-06       1.7491E-04
 Warning! The gradient goes uphill (with respect to step   1 ).
 ======================================================================
 ITERATION STEP  13
 CPU time [min]:     0.222                   Wall time [min]:     0.122
 

 SCF control                  : diis
 Damping factor/level shift   : 0.000/0.000
 DIIS [start/end/frequency]   :   2 /*** /  1

 Gradient norm:      1.4326E-06
 DIIS is running in this iteration step.
 RMS of alpha [F,P] :                                  0.00000000887119
 RMS of beta  [F,P] :                                  0.00000001069428
 RMS of alpha difference density:                      0.00000001316250
 RMS of beta  difference density:                      0.00000001592442
 Gap [au]:  0.57947707
 ALPHA OCC:   2   0   0   0   0   1   1   1
 BETA  OCC:   2   0   0   0   0   0   0   1
 
 ***HARTREE-FOCK ENERGY IN STEP  13 IS        -74.8188753498389190 [AU]
 
 Step comparison  Energy Drift [au]  DIIS error drift  Gradient drift
       12            2.1322E-10         3.5302E-07       2.5673E-05
 Warning! The gradient goes uphill (with respect to step   1 ).
 ======================================================================
 ITERATION STEP  14
 CPU time [min]:     0.239                   Wall time [min]:     0.128
 

 SCF control                  : diis
 Damping factor/level shift   : 0.000/0.000
 DIIS [start/end/frequency]   :   2 /*** /  1

 Gradient norm:      3.0878E-07
 DIIS is running in this iteration step.
 RMS of alpha [F,P] :                                  0.00000000194094
 RMS of beta  [F,P] :                                  0.00000000199470
 RMS of alpha difference density:                      0.00000000115999
 RMS of beta  difference density:                      0.00000000188005
 Gap [au]:  0.57947710
 ALPHA OCC:   2   0   0   0   0   1   1   1
 BETA  OCC:   2   0   0   0   0   0   0   1
 
 ***HARTREE-FOCK ENERGY IN STEP  14 IS        -74.8188753498395585 [AU]
 
 Step comparison  Energy Drift [au]  DIIS error drift  Gradient drift
       13            6.3949E-13         1.1112E-08       1.1238E-06
 Warning! The gradient goes uphill (with respect to step   1 ).
 ======================================================================
 ITERATION STEP  15
 CPU time [min]:     0.256                   Wall time [min]:     0.135
 

 SCF control                  : diis
 Damping factor/level shift   : 0.000/0.000
 DIIS [start/end/frequency]   :   2 /*** /  1

 Gradient norm:      5.9169E-08
 DIIS is running in this iteration step.
 RMS of alpha [F,P] :                                  0.00000000037512
 RMS of beta  [F,P] :                                  0.00000000036337
 RMS of alpha difference density:                      0.00000000027790
 RMS of beta  difference density:                      0.00000000040335
 Gap [au]:  0.57947710
 ALPHA OCC:   2   0   0   0   0   1   1   1
 BETA  OCC:   2   0   0   0   0   0   0   1
 
 ***HARTREE-FOCK ENERGY IN STEP  15 IS        -74.8188753498395442 [AU]
 
 Step comparison  Energy Drift [au]  DIIS error drift  Gradient drift
       14           -1.4211E-14         2.2609E-09       2.4961E-07
 Warning! The energy goes uphill (with respect to previous step).
 Warning! The gradient goes uphill (with respect to step   1 ).
 ======================================================================
 ITERATION STEP  16
 CPU time [min]:     0.273                   Wall time [min]:     0.141
 

 SCF control                  : diis
 Damping factor/level shift   : 0.000/0.000
 DIIS [start/end/frequency]   :   2 /*** /  1

 Gradient norm:      1.0860E-09
 DIIS is running in this iteration step.
 RMS of alpha [F,P] :                                  0.00000000005410
 RMS of beta  [F,P] :                                  0.00000000000930
 RMS of alpha difference density:                      0.00000000000384
 RMS of beta  difference density:                      0.00000000000492
 Gap [au]:  0.57947710
 ALPHA OCC:   2   0   0   0   0   1   1   1
 BETA  OCC:   2   0   0   0   0   0   0   1
 
 ***HARTREE-FOCK ENERGY IN STEP  16 IS        -74.8188753498396011 [AU]
 
 Step comparison  Energy Drift [au]  DIIS error drift  Gradient drift
       15            5.6843E-14         4.6737E-10       5.8083E-08
 Warning! The gradient goes uphill (with respect to step   1 ).
 ======================================================================
 ITERATION STEP  17
 CPU time [min]:     0.289                   Wall time [min]:     0.147
 

 SCF control                  : diis
 Damping factor/level shift   : 0.000/0.000
 DIIS [start/end/frequency]   :   2 /*** /  1

 Gradient norm:      5.8817E-10
 DIIS is running in this iteration step.
 RMS of alpha [F,P] :                                  0.00000000004406
 RMS of beta  [F,P] :                                  0.00000000000703
 RMS of alpha difference density:                      0.00000000000507
 RMS of beta  difference density:                      0.00000000000577
 Gap [au]:  0.57947710
 ALPHA OCC:   2   0   0   0   0   1   1   1
 BETA  OCC:   2   0   0   0   0   0   0   1
 
 ***HARTREE-FOCK ENERGY IN STEP  17 IS        -74.8188753498395727 [AU]
 
 Step comparison  Energy Drift [au]  DIIS error drift  Gradient drift
       16           -2.8422E-14         1.0271E-11       4.9779E-10
 Warning! The energy goes uphill (with respect to previous step).
 Warning! The gradient goes uphill (with respect to step   1 ).
 ======================================================================
 ITERATION STEP  18
 CPU time [min]:     0.306                   Wall time [min]:     0.153
 

 SCF control                  : diis
 Damping factor/level shift   : 0.000/0.000
 DIIS [start/end/frequency]   :   2 /*** /  1

 Gradient norm:      1.5971E-10
 DIIS is running in this iteration step.
 RMS of alpha [F,P] :                                  0.00000000000854
 RMS of beta  [F,P] :                                  0.00000000000098
 RMS of alpha difference density:                      0.00000000000129
 RMS of beta  difference density:                      0.00000000000143
 Gap [au]:  0.57947710
 ALPHA OCC:   2   0   0   0   0   1   1   1
 BETA  OCC:   2   0   0   0   0   0   0   1
 
 ***HARTREE-FOCK ENERGY IN STEP  18 IS        -74.8188753498396153 [AU]
 
 Step comparison  Energy Drift [au]  DIIS error drift  Gradient drift
       17            4.2633E-14         3.6024E-11       4.2846E-10
 Warning! The gradient goes uphill (with respect to step   1 ).
 ======================================================================
 ITERATION STEP  19
 CPU time [min]:     0.323                   Wall time [min]:     0.159
 

 SCF control                  : diis
 Damping factor/level shift   : 0.000/0.000
 DIIS [start/end/frequency]   :   2 /*** /  1

 Gradient norm:      3.3705E-11
 DIIS is running in this iteration step.
 RMS of alpha [F,P] :                                  0.00000000003531
 RMS of beta  [F,P] :                                  0.00000000000043
 RMS of alpha difference density:                      0.00000000000050
 RMS of beta  difference density:                      0.00000000000072
 Gap [au]:  0.57947710
 ALPHA OCC:   2   0   0   0   0   1   1   1
 BETA  OCC:   2   0   0   0   0   0   0   1
 
 ***HARTREE-FOCK ENERGY IN STEP  19 IS        -74.8188753498396153 [AU]
 
 Step comparison  Energy Drift [au]  DIIS error drift  Gradient drift
       18            0.0000E+00        -2.6713E-11       1.2601E-10
 Warning! The energy goes uphill (with respect to previous step).
 Warning! The DIIS error goes uphill (with respect to previous step).
 Warning! The DIIS error goes uphill (with respect to step  18 ).
 Warning! The gradient goes uphill (with respect to step   1 ).
 ======================================================================
 ITERATION STEP  20
 CPU time [min]:     0.339                   Wall time [min]:     0.165
 

 SCF control                  : diis
 Damping factor/level shift   : 0.000/0.000
 DIIS [start/end/frequency]   :   2 /*** /  1

 Gradient norm:      6.2484E-11
 DIIS is running in this iteration step.
 RMS of alpha [F,P] :                                  0.00000000002889
 RMS of beta  [F,P] :                                  0.00000000000032
 RMS of alpha difference density:                      0.00000000000053
 RMS of beta  difference density:                      0.00000000000097
 Gap [au]:  0.57947710
 ALPHA OCC:   2   0   0   0   0   1   1   1
 BETA  OCC:   2   0   0   0   0   0   0   1
 
 ***HARTREE-FOCK ENERGY IN STEP  20 IS        -74.8188753498395158 [AU]
 
 Step comparison  Energy Drift [au]  DIIS error drift  Gradient drift
       19           -9.9476E-14         6.4204E-12      -2.8780E-11
       18           -9.9476E-14        -2.0293E-11      -6.2484E-11
 Warning! The energy goes uphill (with respect to previous step).
 Warning! The DIIS error goes uphill (with respect to step  18 ).
 Warning! The gradient goes uphill (with respect to previous step).
 Warning! The gradient goes uphill (with respect to step   1 ).
 ======================================================================
 ITERATION STEP  21
 CPU time [min]:     0.356                   Wall time [min]:     0.171
 

 SCF control                  : diis
 Damping factor/level shift   : 0.000/0.000
 DIIS [start/end/frequency]   :   2 /*** /  1

 Gradient norm:      1.3704E-10
 DIIS is running in this iteration step.
 RMS of alpha [F,P] :                                  0.00000000002127
 RMS of beta  [F,P] :                                  0.00000000000014
 RMS of alpha difference density:                      0.00000000000043
 RMS of beta  difference density:                      0.00000000000102
 Gap [au]:  0.57947710
 ALPHA OCC:   2   0   0   0   0   1   1   1
 BETA  OCC:   2   0   0   0   0   0   0   1
 
 ***HARTREE-FOCK ENERGY IN STEP  21 IS        -74.8188753498395442 [AU]
 
 Step comparison  Energy Drift [au]  DIIS error drift  Gradient drift
       20            2.8422E-14         7.6222E-12      -7.4555E-11
       18           -7.1054E-14        -1.2671E-11      -1.3704E-10
 Warning! The DIIS error goes uphill (with respect to step  18 ).
 Warning! The gradient goes uphill (with respect to previous step).
 Warning! The gradient goes uphill (with respect to step   1 ).
 ======================================================================
 ITERATION STEP  22
 CPU time [min]:     0.372                   Wall time [min]:     0.177
 

 SCF control                  : diis
 Damping factor/level shift   : 0.000/0.000
 DIIS [start/end/frequency]   :   2 /*** /  1

 Gradient norm:      7.8705E-11
 DIIS is running in this iteration step.
 RMS of alpha [F,P] :                                  0.00000000001303
 RMS of beta  [F,P] :                                  0.00000000000019
 RMS of alpha difference density:                      0.00000000000052
 RMS of beta  difference density:                      0.00000000000065
 Gap [au]:  0.57947710
 ALPHA OCC:   2   0   0   0   0   1   1   1
 BETA  OCC:   2   0   0   0   0   0   0   1
 
 ***HARTREE-FOCK ENERGY IN STEP  22 IS        -74.8188753498396153 [AU]
 
 Step comparison  Energy Drift [au]  DIIS error drift  Gradient drift
       21            7.1054E-14         8.2342E-12       5.8334E-11
       18            0.0000E+00        -4.4365E-12      -7.8705E-11
 Warning! The DIIS error goes uphill (with respect to step  18 ).
 Warning! The gradient goes uphill (with respect to step   1 ).
 ======================================================================
 ITERATION STEP  23
 CPU time [min]:     0.389                   Wall time [min]:     0.183
 

 SCF control                  : diis
 Damping factor/level shift   : 0.000/0.000
 DIIS [start/end/frequency]   :   2 /*** /  1

 Gradient norm:      6.4102E-11
 DIIS is running in this iteration step.
 RMS of alpha [F,P] :                                  0.00000000001899
 RMS of beta  [F,P] :                                  0.00000000000016
 RMS of alpha difference density:                      0.00000000000072
 RMS of beta  difference density:                      0.00000000000055
 Gap [au]:  0.57947710
 ALPHA OCC:   2   0   0   0   0   1   1   1
 BETA  OCC:   2   0   0   0   0   0   0   1
 
 ***HARTREE-FOCK ENERGY IN STEP  23 IS        -74.8188753498396153 [AU]
 
 Step comparison  Energy Drift [au]  DIIS error drift  Gradient drift
       22            0.0000E+00        -5.9601E-12       1.4604E-11
       18            0.0000E+00        -1.0397E-11      -6.4102E-11
 Warning! The energy goes uphill (with respect to previous step).
 Warning! The DIIS error goes uphill (with respect to previous step).
 Warning! The DIIS error goes uphill (with respect to step  18 ).
 Warning! The gradient goes uphill (with respect to step   1 ).
 ======================================================================
 ITERATION STEP  24
 CPU time [min]:     0.405                   Wall time [min]:     0.189
 

 SCF control                  : diis
 Damping factor/level shift   : 0.000/0.000
 DIIS [start/end/frequency]   :   2 /*** /  1

 Gradient norm:      5.4505E-11
 DIIS is running in this iteration step.
 RMS of alpha [F,P] :                                  0.00000000006427
 RMS of beta  [F,P] :                                  0.00000000000016
 RMS of alpha difference density:                      0.00000000000060
 RMS of beta  difference density:                      0.00000000000038
 Gap [au]:  0.57947710
 ALPHA OCC:   2   0   0   0   0   1   1   1
 BETA  OCC:   2   0   0   0   0   0   0   1
 
 ***HARTREE-FOCK ENERGY IN STEP  24 IS        -74.8188753498396579 [AU]
 
 Step comparison  Energy Drift [au]  DIIS error drift  Gradient drift
       23            4.2633E-14        -4.5276E-11       9.5969E-12
       18            4.2633E-14        -5.5672E-11      -5.4505E-11
 Warning! The DIIS error goes uphill (with respect to previous step).
 Warning! The DIIS error goes uphill (with respect to step  18 ).
 Warning! The gradient goes uphill (with respect to step   1 ).
 ======================================================================
 ITERATION STEP  25
 CPU time [min]:     0.422                   Wall time [min]:     0.195
 

 SCF control                  : diis
 Damping factor/level shift   : 0.000/0.000
 DIIS [start/end/frequency]   :   2 /*** /  1

 Gradient norm:      7.4681E-11
 DIIS is running in this iteration step.
 RMS of alpha [F,P] :                                  0.00000000002304
 RMS of beta  [F,P] :                                  0.00000000000007
 RMS of alpha difference density:                      0.00000000000160
 RMS of beta  difference density:                      0.00000000000061
 Gap [au]:  0.57947710
 ALPHA OCC:   2   0   0   0   0   1   1   1
 BETA  OCC:   2   0   0   0   0   0   0   1
 
 ***HARTREE-FOCK ENERGY IN STEP  25 IS        -74.8188753498395869 [AU]
 
 Step comparison  Energy Drift [au]  DIIS error drift  Gradient drift
       24           -7.1054E-14         4.1230E-11      -2.0176E-11
       18           -2.8422E-14        -1.4443E-11      -7.4681E-11
 Warning! The energy goes uphill (with respect to previous step).
 Warning! The DIIS error goes uphill (with respect to step  18 ).
 Warning! The gradient goes uphill (with respect to previous step).
 Warning! The gradient goes uphill (with respect to step   1 ).
 ======================================================================
 ITERATION STEP  26
 CPU time [min]:     0.438                   Wall time [min]:     0.201
 

 SCF control                  : diis
 Damping factor/level shift   : 0.000/0.000
 DIIS [start/end/frequency]   :   2 /*** /  1

 Gradient norm:      5.6785E-11
 DIIS is running in this iteration step.
 RMS of alpha [F,P] :                                  0.00000000009558
 RMS of beta  [F,P] :                                  0.00000000000007
 RMS of alpha difference density:                      0.00000000000056
 RMS of beta  difference density:                      0.00000000000116
 Gap [au]:  0.57947710
 ALPHA OCC:   2   0   0   0   0   1   1   1
 BETA  OCC:   2   0   0   0   0   0   0   1
 
 ***HARTREE-FOCK ENERGY IN STEP  26 IS        -74.8188753498396295 [AU]
 
 Step comparison  Energy Drift [au]  DIIS error drift  Gradient drift
       25            4.2633E-14        -7.2541E-11       1.7896E-11
       18            1.4211E-14        -8.6983E-11      -5.6785E-11
 Warning! The DIIS error goes uphill (with respect to previous step).
 Warning! The DIIS error goes uphill (with respect to step  18 ).
 Warning! The gradient goes uphill (with respect to step   1 ).
 ======================================================================
 ITERATION STEP  27
 CPU time [min]:     0.455                   Wall time [min]:     0.207
 

 SCF control                  : diis
 Damping factor/level shift   : 0.000/0.000
 DIIS [start/end/frequency]   :   2 /*** /  1

 Gradient norm:      9.5864E-11
 DIIS is running in this iteration step.
 RMS of alpha [F,P] :                                  0.00000000008003
 RMS of beta  [F,P] :                                  0.00000000000009
 RMS of alpha difference density:                      0.00000000000037
 RMS of beta  difference density:                      0.00000000000153
 Gap [au]:  0.57947710
 ALPHA OCC:   2   0   0   0   0   1   1   1
 BETA  OCC:   2   0   0   0   0   0   0   1
 
 ***HARTREE-FOCK ENERGY IN STEP  27 IS        -74.8188753498395442 [AU]
 
 Step comparison  Energy Drift [au]  DIIS error drift  Gradient drift
       26           -8.5265E-14         1.5554E-11      -3.9079E-11
       18           -7.1054E-14        -7.1429E-11      -9.5864E-11
 Warning! The energy goes uphill (with respect to previous step).
 Warning! The DIIS error goes uphill (with respect to step  18 ).
 Warning! The gradient goes uphill (with respect to previous step).
 Warning! The gradient goes uphill (with respect to step   1 ).
 ======================================================================
 ITERATION STEP  28
 CPU time [min]:     0.471                   Wall time [min]:     0.213
 

 SCF control                  : diis
 Damping factor/level shift   : 0.000/0.000
 DIIS [start/end/frequency]   :   2 /*** /  1

 Gradient norm:      9.1528E-11
 DIIS is running in this iteration step.
 RMS of alpha [F,P] :                                  0.00000000003416
 RMS of beta  [F,P] :                                  0.00000000000008
 RMS of alpha difference density:                      0.00000000000027
 RMS of beta  difference density:                      0.00000000000024
 Gap [au]:  0.57947710
 ALPHA OCC:   2   0   0   0   0   1   1   1
 BETA  OCC:   2   0   0   0   0   0   0   1
 
 ***HARTREE-FOCK ENERGY IN STEP  28 IS        -74.8188753498396153 [AU]
 
 Step comparison  Energy Drift [au]  DIIS error drift  Gradient drift
       27            7.1054E-14         4.5869E-11       4.3359E-12
       18            0.0000E+00        -2.5561E-11      -9.1528E-11
 Warning! The DIIS error goes uphill (with respect to step  18 ).
 Warning! The gradient goes uphill (with respect to step   1 ).
 ======================================================================
 ITERATION STEP  29
 CPU time [min]:     0.488                   Wall time [min]:     0.219
 

 SCF control                  : diis
 Damping factor/level shift   : 0.000/0.000
 DIIS [start/end/frequency]   :   2 /*** /  1

 Gradient norm:      4.3275E-11
 DIIS is running in this iteration step.
 RMS of alpha [F,P] :                                  0.00000000005952
 RMS of beta  [F,P] :                                  0.00000000000013
 RMS of alpha difference density:                      0.00000000000018
 RMS of beta  difference density:                      0.00000000000059
 Gap [au]:  0.57947710
 ALPHA OCC:   2   0   0   0   0   1   1   1
 BETA  OCC:   2   0   0   0   0   0   0   1
 
 ***HARTREE-FOCK ENERGY IN STEP  29 IS        -74.8188753498396011 [AU]
 
 Step comparison  Energy Drift [au]  DIIS error drift  Gradient drift
       28           -1.4211E-14        -2.5358E-11       4.8253E-11
       18           -1.4211E-14        -5.0919E-11      -4.3275E-11
 Warning! The energy goes uphill (with respect to previous step).
 Warning! The DIIS error goes uphill (with respect to previous step).
 Warning! The DIIS error goes uphill (with respect to step  18 ).
 Warning! The gradient goes uphill (with respect to step   1 ).
 ======================================================================
 ITERATION STEP  30
 CPU time [min]:     0.505                   Wall time [min]:     0.226
 

 SCF control                  : diis
 Damping factor/level shift   : 0.000/0.000
 DIIS [start/end/frequency]   :   2 /*** /  1

 Gradient norm:      7.8781E-11
 DIIS is running in this iteration step.
 RMS of alpha [F,P] :                                  0.00000000006197
 RMS of beta  [F,P] :                                  0.00000000000015
 RMS of alpha difference density:                      0.00000000000023
 RMS of beta  difference density:                      0.00000000000115
 Gap [au]:  0.57947710
 ALPHA OCC:   2   0   0   0   0   1   1   1
 BETA  OCC:   2   0   0   0   0   0   0   1
 
 ***HARTREE-FOCK ENERGY IN STEP  30 IS        -74.8188753498396011 [AU]
 
 Step comparison  Energy Drift [au]  DIIS error drift  Gradient drift
       29            0.0000E+00        -2.4549E-12      -3.5507E-11
       18           -1.4211E-14        -5.3373E-11      -7.8781E-11
 Warning! The energy goes uphill (with respect to previous step).
 Warning! The DIIS error goes uphill (with respect to previous step).
 Warning! The DIIS error goes uphill (with respect to step  18 ).
 Warning! The gradient goes uphill (with respect to previous step).
 Warning! The gradient goes uphill (with respect to step   1 ).
 ======================================================================
 ITERATION STEP  31
 CPU time [min]:     0.522                   Wall time [min]:     0.232
 

 SCF control                  : diis
 Damping factor/level shift   : 0.000/0.000
 DIIS [start/end/frequency]   :   2 /*** /  1

 Gradient norm:      5.3395E-11
 DIIS is running in this iteration step.
 RMS of alpha [F,P] :                                  0.00000000000841
 RMS of beta  [F,P] :                                  0.00000000000015
 RMS of alpha difference density:                      0.00000000000037
 RMS of beta  difference density:                      0.00000000000076
 Gap [au]:  0.57947710
 ALPHA OCC:   2   0   0   0   0   1   1   1
 BETA  OCC:   2   0   0   0   0   0   0   1
 
 ***HARTREE-FOCK ENERGY IN STEP  31 IS        -74.8188753498395158 [AU]
 
 Step comparison  Energy Drift [au]  DIIS error drift  Gradient drift
       30           -8.5265E-14         5.3560E-11       2.5386E-11
       31           -9.9476E-14         1.8601E-13      -5.3395E-11
 Warning! The energy goes uphill (with respect to previous step).
 Warning! The gradient goes uphill (with respect to step   1 ).
 ======================================================================
 ITERATION STEP  32
 CPU time [min]:     0.538                   Wall time [min]:     0.238
 

 SCF control                  : diis
 Damping factor/level shift   : 0.000/0.000
 DIIS [start/end/frequency]   :   2 /*** /  1

 Gradient norm:      5.9981E-11
 DIIS is running in this iteration step.
 RMS of alpha [F,P] :                                  0.00000000012125
 RMS of beta  [F,P] :                                  0.00000000000008
 RMS of alpha difference density:                      0.00000000000071
 RMS of beta  difference density:                      0.00000000000051
 Gap [au]:  0.57947710
 ALPHA OCC:   2   0   0   0   0   1   1   1
 BETA  OCC:   2   0   0   0   0   0   0   1
 
 ***HARTREE-FOCK ENERGY IN STEP  32 IS        -74.8188753498394590 [AU]
 
 Step comparison  Energy Drift [au]  DIIS error drift  Gradient drift
       31           -5.6843E-14        -1.1284E-10      -6.5859E-12
 Warning! The energy goes uphill (with respect to previous step).
 Warning! The DIIS error goes uphill (with respect to previous step).
 Warning! The DIIS error goes uphill (with respect to step  31 ).
 Warning! The gradient goes uphill (with respect to previous step).
 Warning! The gradient goes uphill (with respect to step   1 ).
 ======================================================================
 ITERATION STEP  33
 CPU time [min]:     0.555                   Wall time [min]:     0.244
 

 SCF control                  : diis
 Damping factor/level shift   : 0.000/0.000
 DIIS [start/end/frequency]   :   2 /*** /  1

 Gradient norm:      7.2673E-11
 DIIS is running in this iteration step.
 RMS of alpha [F,P] :                                  0.00000000010343
 RMS of beta  [F,P] :                                  0.00000000000005
 RMS of alpha difference density:                      0.00000000000106
 RMS of beta  difference density:                      0.00000000000053
 Gap [au]:  0.57947710
 ALPHA OCC:   2   0   0   0   0   1   1   1
 BETA  OCC:   2   0   0   0   0   0   0   1
 
 ***HARTREE-FOCK ENERGY IN STEP  33 IS        -74.8188753498396295 [AU]
 
 Step comparison  Energy Drift [au]  DIIS error drift  Gradient drift
       32            1.7053E-13         1.7827E-11      -1.2692E-11
       31            1.1369E-13        -9.5014E-11      -7.2673E-11
 Warning! The DIIS error goes uphill (with respect to step  31 ).
 Warning! The gradient goes uphill (with respect to previous step).
 Warning! The gradient goes uphill (with respect to step   1 ).
 ======================================================================
 ITERATION STEP  34
 CPU time [min]:     0.571                   Wall time [min]:     0.250
 

 SCF control                  : diis
 Damping factor/level shift   : 0.000/0.000
 DIIS [start/end/frequency]   :   2 /*** /  1

 Gradient norm:      4.9665E-11
 DIIS is running in this iteration step.
 RMS of alpha [F,P] :                                  0.00000000015368
 RMS of beta  [F,P] :                                  0.00000000000008
 RMS of alpha difference density:                      0.00000000000077
 RMS of beta  difference density:                      0.00000000000027
 Gap [au]:  0.57947710
 ALPHA OCC:   2   0   0   0   0   1   1   1
 BETA  OCC:   2   0   0   0   0   0   0   1
 
 ***HARTREE-FOCK ENERGY IN STEP  34 IS        -74.8188753498395727 [AU]
 
 Step comparison  Energy Drift [au]  DIIS error drift  Gradient drift
       33           -5.6843E-14        -5.0250E-11       2.3008E-11
       31            5.6843E-14        -1.4526E-10      -4.9665E-11
 Warning! The energy goes uphill (with respect to previous step).
 Warning! The DIIS error goes uphill (with respect to previous step).
 Warning! The DIIS error goes uphill (with respect to step  31 ).
 Warning! The gradient goes uphill (with respect to step   1 ).
 ======================================================================
 ITERATION STEP  35
 CPU time [min]:     0.588                   Wall time [min]:     0.256
 

 SCF control                  : diis
 Damping factor/level shift   : 0.000/0.000
 DIIS [start/end/frequency]   :   2 /*** /  1

 Gradient norm:      5.6048E-11
 DIIS is running in this iteration step.
 RMS of alpha [F,P] :                                  0.00000000002698
 RMS of beta  [F,P] :                                  0.00000000000008
 RMS of alpha difference density:                      0.00000000000086
 RMS of beta  difference density:                      0.00000000000047
 Gap [au]:  0.57947710
 ALPHA OCC:   2   0   0   0   0   1   1   1
 BETA  OCC:   2   0   0   0   0   0   0   1
 
 ***HARTREE-FOCK ENERGY IN STEP  35 IS        -74.8188753498395727 [AU]
 
 Step comparison  Energy Drift [au]  DIIS error drift  Gradient drift
       34            0.0000E+00         1.2669E-10      -6.3835E-12
       31            5.6843E-14        -1.8571E-11      -5.6048E-11
 Warning! The energy goes uphill (with respect to previous step).
 Warning! The DIIS error goes uphill (with respect to step  31 ).
 Warning! The gradient goes uphill (with respect to previous step).
 Warning! The gradient goes uphill (with respect to step   1 ).
 ======================================================================
 ITERATION STEP  36
 CPU time [min]:     0.605                   Wall time [min]:     0.262
 

 SCF control                  : diis
 Damping factor/level shift   : 0.000/0.000
 DIIS [start/end/frequency]   :   2 /*** /  1

 Gradient norm:      5.5690E-11
 DIIS is running in this iteration step.
 RMS of alpha [F,P] :                                  0.00000000005751
 RMS of beta  [F,P] :                                  0.00000000000007
 RMS of alpha difference density:                      0.00000000000065
 RMS of beta  difference density:                      0.00000000000043
 Gap [au]:  0.57947710
 ALPHA OCC:   2   0   0   0   0   1   1   1
 BETA  OCC:   2   0   0   0   0   0   0   1
 
 ***HARTREE-FOCK ENERGY IN STEP  36 IS        -74.8188753498395158 [AU]
 
 Step comparison  Energy Drift [au]  DIIS error drift  Gradient drift
       35           -5.6843E-14        -3.0531E-11       3.5803E-13
       31            0.0000E+00        -4.9102E-11      -5.5690E-11
 Warning! The energy goes uphill (with respect to previous step).
 Warning! The DIIS error goes uphill (with respect to previous step).
 Warning! The DIIS error goes uphill (with respect to step  31 ).
 Warning! The gradient goes uphill (with respect to step   1 ).
 ======================================================================
 ITERATION STEP  37
 CPU time [min]:     0.621                   Wall time [min]:     0.268
 

 SCF control                  : diis
 Damping factor/level shift   : 0.000/0.000
 DIIS [start/end/frequency]   :   2 /*** /  1

 Gradient norm:      5.7729E-11
 DIIS is running in this iteration step.
 RMS of alpha [F,P] :                                  0.00000000001835
 RMS of beta  [F,P] :                                  0.00000000000010
 RMS of alpha difference density:                      0.00000000000015
 RMS of beta  difference density:                      0.00000000000041
 Gap [au]:  0.57947710
 ALPHA OCC:   2   0   0   0   0   1   1   1
 BETA  OCC:   2   0   0   0   0   0   0   1
 
 ***HARTREE-FOCK ENERGY IN STEP  37 IS        -74.8188753498396011 [AU]
 
 Step comparison  Energy Drift [au]  DIIS error drift  Gradient drift
       36            8.5265E-14         3.9169E-11      -2.0392E-12
       31            8.5265E-14        -9.9332E-12      -5.7729E-11
 Warning! The DIIS error goes uphill (with respect to step  31 ).
 Warning! The gradient goes uphill (with respect to previous step).
 Warning! The gradient goes uphill (with respect to step   1 ).
 ======================================================================
 ITERATION STEP  38
 CPU time [min]:     0.639                   Wall time [min]:     0.274
 

 SCF control                  : diis
 Damping factor/level shift   : 0.000/0.000
 DIIS [start/end/frequency]   :   2 /*** /  1

 Gradient norm:      8.0025E-11
 DIIS is running in this iteration step.
 RMS of alpha [F,P] :                                  0.00000000012128
 RMS of beta  [F,P] :                                  0.00000000000010
 RMS of alpha difference density:                      0.00000000000068
 RMS of beta  difference density:                      0.00000000000027
 Gap [au]:  0.57947710
 ALPHA OCC:   2   0   0   0   0   1   1   1
 BETA  OCC:   2   0   0   0   0   0   0   1
 
 ***HARTREE-FOCK ENERGY IN STEP  38 IS        -74.8188753498396011 [AU]
 
 Step comparison  Energy Drift [au]  DIIS error drift  Gradient drift
       37            0.0000E+00        -1.0293E-10      -2.2295E-11
       31            8.5265E-14        -1.1286E-10      -8.0025E-11
 Warning! The energy goes uphill (with respect to previous step).
 Warning! The DIIS error goes uphill (with respect to previous step).
 Warning! The DIIS error goes uphill (with respect to step  31 ).
 Warning! The gradient goes uphill (with respect to previous step).
 Warning! The gradient goes uphill (with respect to step   1 ).
 ======================================================================
 ITERATION STEP  39
 CPU time [min]:     0.655                   Wall time [min]:     0.280
 

 SCF control                  : diis
 Damping factor/level shift   : 0.000/0.000
 DIIS [start/end/frequency]   :   2 /*** /  1

 Gradient norm:      6.3469E-11
 DIIS is running in this iteration step.
 RMS of alpha [F,P] :                                  0.00000000004982
 RMS of beta  [F,P] :                                  0.00000000000007
 RMS of alpha difference density:                      0.00000000000033
 RMS of beta  difference density:                      0.00000000000053
 Gap [au]:  0.57947710
 ALPHA OCC:   2   0   0   0   0   1   1   1
 BETA  OCC:   2   0   0   0   0   0   0   1
 
 ***HARTREE-FOCK ENERGY IN STEP  39 IS        -74.8188753498396579 [AU]
 
 Step comparison  Energy Drift [au]  DIIS error drift  Gradient drift
       38            5.6843E-14         7.1456E-11       1.6556E-11
       31            1.4211E-13        -4.1408E-11      -6.3469E-11
 Warning! The DIIS error goes uphill (with respect to step  31 ).
 Warning! The gradient goes uphill (with respect to step   1 ).
 ======================================================================
 ITERATION STEP  40
 CPU time [min]:     0.672                   Wall time [min]:     0.286
 

 SCF control                  : diis
 Damping factor/level shift   : 0.000/0.000
 DIIS [start/end/frequency]   :   2 /*** /  1

 Gradient norm:      5.1396E-11
 DIIS is running in this iteration step.
 RMS of alpha [F,P] :                                  0.00000000002467
 RMS of beta  [F,P] :                                  0.00000000000008
 RMS of alpha difference density:                      0.00000000000037
 RMS of beta  difference density:                      0.00000000000086
 Gap [au]:  0.57947710
 ALPHA OCC:   2   0   0   0   0   1   1   1
 BETA  OCC:   2   0   0   0   0   0   0   1
 
 ***HARTREE-FOCK ENERGY IN STEP  40 IS        -74.8188753498396579 [AU]
 
 Step comparison  Energy Drift [au]  DIIS error drift  Gradient drift
       39            0.0000E+00         2.5149E-11       1.2073E-11
       31            1.4211E-13        -1.6259E-11      -5.1396E-11
 Warning! The energy goes uphill (with respect to previous step).
 Warning! The DIIS error goes uphill (with respect to step  31 ).
 Warning! The gradient goes uphill (with respect to step   1 ).
 ======================================================================
 ITERATION STEP  41
 CPU time [min]:     0.688                   Wall time [min]:     0.292
 

 SCF control                  : diis
 Damping factor/level shift   : 0.000/0.000
 DIIS [start/end/frequency]   :   2 /*** /  1

 Gradient norm:      5.8601E-11
 DIIS is running in this iteration step.
 RMS of alpha [F,P] :                                  0.00000000005197
 RMS of beta  [F,P] :                                  0.00000000000008
 RMS of alpha difference density:                      0.00000000000035
 RMS of beta  difference density:                      0.00000000000032
 Gap [au]:  0.57947710
 ALPHA OCC:   2   0   0   0   0   1   1   1
 BETA  OCC:   2   0   0   0   0   0   0   1
 
 ***HARTREE-FOCK ENERGY IN STEP  41 IS        -74.8188753498395158 [AU]
 
 Step comparison  Energy Drift [au]  DIIS error drift  Gradient drift
       40           -1.4211E-13        -2.7301E-11      -7.2057E-12
       31            0.0000E+00        -4.3560E-11      -5.8601E-11
 Warning! The energy goes uphill (with respect to previous step).
 Warning! The DIIS error goes uphill (with respect to previous step).
 Warning! The DIIS error goes uphill (with respect to step  31 ).
 Warning! The gradient goes uphill (with respect to previous step).
 Warning! The gradient goes uphill (with respect to step   1 ).
 ======================================================================
 ITERATION STEP  42
 CPU time [min]:     0.705                   Wall time [min]:     0.298
 

 SCF control                  : diis
 Damping factor/level shift   : 0.000/0.000
 DIIS [start/end/frequency]   :   2 /*** /  1

 Gradient norm:      6.9204E-11
 DIIS is running in this iteration step.
 RMS of alpha [F,P] :                                  0.00000000004798
 RMS of beta  [F,P] :                                  0.00000000000009
 RMS of alpha difference density:                      0.00000000000072
 RMS of beta  difference density:                      0.00000000000041
 Gap [au]:  0.57947710
 ALPHA OCC:   2   0   0   0   0   1   1   1
 BETA  OCC:   2   0   0   0   0   0   0   1
 
 ***HARTREE-FOCK ENERGY IN STEP  42 IS        -74.8188753498395442 [AU]
 
 Step comparison  Energy Drift [au]  DIIS error drift  Gradient drift
       41            2.8422E-14         3.9969E-12      -1.0603E-11
       31            2.8422E-14        -3.9563E-11      -6.9204E-11
 Warning! The DIIS error goes uphill (with respect to step  31 ).
 Warning! The gradient goes uphill (with respect to previous step).
 Warning! The gradient goes uphill (with respect to step   1 ).
 ======================================================================
 ITERATION STEP  43
 CPU time [min]:     0.721                   Wall time [min]:     0.304
 

 SCF control                  : diis
 Damping factor/level shift   : 0.000/0.000
 DIIS [start/end/frequency]   :   2 /*** /  1

 Gradient norm:      7.3559E-11
 DIIS is running in this iteration step.
 RMS of alpha [F,P] :                                  0.00000000011663
 RMS of beta  [F,P] :                                  0.00000000000013
 RMS of alpha difference density:                      0.00000000000102
 RMS of beta  difference density:                      0.00000000000027
 Gap [au]:  0.57947710
 ALPHA OCC:   2   0   0   0   0   1   1   1
 BETA  OCC:   2   0   0   0   0   0   0   1
 
 ***HARTREE-FOCK ENERGY IN STEP  43 IS        -74.8188753498396011 [AU]
 
 Step comparison  Energy Drift [au]  DIIS error drift  Gradient drift
       42            5.6843E-14        -6.8652E-11      -4.3545E-12
       31            8.5265E-14        -1.0822E-10      -7.3559E-11
 Warning! The DIIS error goes uphill (with respect to previous step).
 Warning! The DIIS error goes uphill (with respect to step  31 ).
 Warning! The gradient goes uphill (with respect to previous step).
 Warning! The gradient goes uphill (with respect to step   1 ).
 ======================================================================
 ITERATION STEP  44
 CPU time [min]:     0.738                   Wall time [min]:     0.310
 

 SCF control                  : diis
 Damping factor/level shift   : 0.000/0.000
 DIIS [start/end/frequency]   :   2 /*** /  1

 Gradient norm:      8.3676E-11
 DIIS is running in this iteration step.
 RMS of alpha [F,P] :                                  0.00000000001486
 RMS of beta  [F,P] :                                  0.00000000000010
 RMS of alpha difference density:                      0.00000000000073
 RMS of beta  difference density:                      0.00000000000055
 Gap [au]:  0.57947710
 ALPHA OCC:   2   0   0   0   0   1   1   1
 BETA  OCC:   2   0   0   0   0   0   0   1
 
 ***HARTREE-FOCK ENERGY IN STEP  44 IS        -74.8188753498396011 [AU]
 
 Step comparison  Energy Drift [au]  DIIS error drift  Gradient drift
       43            0.0000E+00         1.0176E-10      -1.0117E-11
       31            8.5265E-14        -6.4518E-12      -8.3676E-11
 Warning! The energy goes uphill (with respect to previous step).
 Warning! The DIIS error goes uphill (with respect to step  31 ).
 Warning! The gradient goes uphill (with respect to previous step).
 Warning! The gradient goes uphill (with respect to step   1 ).
 ======================================================================
 ITERATION STEP  45
 CPU time [min]:     0.754                   Wall time [min]:     0.316
 

 SCF control                  : diis
 Damping factor/level shift   : 0.000/0.000
 DIIS [start/end/frequency]   :   2 /*** /  1

 Gradient norm:      6.0285E-11
 DIIS is running in this iteration step.
 RMS of alpha [F,P] :                                  0.00000000016930
 RMS of beta  [F,P] :                                  0.00000000000012
 RMS of alpha difference density:                      0.00000000000017
 RMS of beta  difference density:                      0.00000000000028
 Gap [au]:  0.57947710
 ALPHA OCC:   2   0   0   0   0   1   1   1
 BETA  OCC:   2   0   0   0   0   0   0   1
 
 ***HARTREE-FOCK ENERGY IN STEP  45 IS        -74.8188753498395158 [AU]
 
 Step comparison  Energy Drift [au]  DIIS error drift  Gradient drift
       44           -8.5265E-14        -1.5443E-10       2.3391E-11
       31            0.0000E+00        -1.6088E-10      -6.0285E-11
 Warning! The energy goes uphill (with respect to previous step).
 Warning! The DIIS error goes uphill (with respect to previous step).
 Warning! The DIIS error goes uphill (with respect to step  31 ).
 Warning! The gradient goes uphill (with respect to step   1 ).
 ======================================================================
 ITERATION STEP  46
 CPU time [min]:     0.771                   Wall time [min]:     0.322
 

 SCF control                  : diis
 Damping factor/level shift   : 0.000/0.000
 DIIS [start/end/frequency]   :   2 /*** /  1

 Gradient norm:      4.7629E-11
 DIIS is running in this iteration step.
 RMS of alpha [F,P] :                                  0.00000000003929
 RMS of beta  [F,P] :                                  0.00000000000009
 RMS of alpha difference density:                      0.00000000000023
 RMS of beta  difference density:                      0.00000000000066
 Gap [au]:  0.57947710
 ALPHA OCC:   2   0   0   0   0   1   1   1
 BETA  OCC:   2   0   0   0   0   0   0   1
 
 ***HARTREE-FOCK ENERGY IN STEP  46 IS        -74.8188753498395442 [AU]
 
 Step comparison  Energy Drift [au]  DIIS error drift  Gradient drift
       45            2.8422E-14         1.3000E-10       1.2656E-11
       31            2.8422E-14        -3.0882E-11      -4.7629E-11
 Warning! The DIIS error goes uphill (with respect to step  31 ).
 Warning! The gradient goes uphill (with respect to step   1 ).
 ======================================================================
 ITERATION STEP  47
 CPU time [min]:     0.787                   Wall time [min]:     0.328
 

 SCF control                  : diis
 Damping factor/level shift   : 0.000/0.000
 DIIS [start/end/frequency]   :   2 /*** /  1

 Gradient norm:      4.4829E-11
 DIIS is running in this iteration step.
 RMS of alpha [F,P] :                                  0.00000000005929
 RMS of beta  [F,P] :                                  0.00000000000012
 RMS of alpha difference density:                      0.00000000000034
 RMS of beta  difference density:                      0.00000000000047
 Gap [au]:  0.57947710
 ALPHA OCC:   2   0   0   0   0   1   1   1
 BETA  OCC:   2   0   0   0   0   0   0   1
 
 ***HARTREE-FOCK ENERGY IN STEP  47 IS        -74.8188753498396295 [AU]
 
 Step comparison  Energy Drift [au]  DIIS error drift  Gradient drift
       46            8.5265E-14        -1.9996E-11       2.8004E-12
       31            1.1369E-13        -5.0878E-11      -4.4829E-11
 Warning! The DIIS error goes uphill (with respect to previous step).
 Warning! The DIIS error goes uphill (with respect to step  31 ).
 Warning! The gradient goes uphill (with respect to step   1 ).
 ======================================================================
 ITERATION STEP  48
 CPU time [min]:     0.804                   Wall time [min]:     0.334
 

 SCF control                  : diis
 Damping factor/level shift   : 0.000/0.000
 DIIS [start/end/frequency]   :   2 /*** /  1

 Gradient norm:      1.3862E-10
 DIIS is running in this iteration step.
 RMS of alpha [F,P] :                                  0.00000000002397
 RMS of beta  [F,P] :                                  0.00000000000009
 RMS of alpha difference density:                      0.00000000000039
 RMS of beta  difference density:                      0.00000000000056
 Gap [au]:  0.57947710
 ALPHA OCC:   2   0   0   0   0   1   1   1
 BETA  OCC:   2   0   0   0   0   0   0   1
 
 ***HARTREE-FOCK ENERGY IN STEP  48 IS        -74.8188753498396011 [AU]
 
 Step comparison  Energy Drift [au]  DIIS error drift  Gradient drift
       47           -2.8422E-14         3.5321E-11      -9.3792E-11
       31            8.5265E-14        -1.5557E-11      -1.3862E-10
 Warning! The energy goes uphill (with respect to previous step).
 Warning! The DIIS error goes uphill (with respect to step  31 ).
 Warning! The gradient goes uphill (with respect to previous step).
 Warning! The gradient goes uphill (with respect to step   1 ).
 ======================================================================
 ITERATION STEP  49
 CPU time [min]:     0.821                   Wall time [min]:     0.340
 

 SCF control                  : diis
 Damping factor/level shift   : 0.000/0.000
 DIIS [start/end/frequency]   :   2 /*** /  1

 Gradient norm:      8.1498E-11
 DIIS is running in this iteration step.
 RMS of alpha [F,P] :                                  0.00000000001897
 RMS of beta  [F,P] :                                  0.00000000000009
 RMS of alpha difference density:                      0.00000000000018
 RMS of beta  difference density:                      0.00000000000048
 Gap [au]:  0.57947710
 ALPHA OCC:   2   0   0   0   0   1   1   1
 BETA  OCC:   2   0   0   0   0   0   0   1
 
 ***HARTREE-FOCK ENERGY IN STEP  49 IS        -74.8188753498396579 [AU]
 
 Step comparison  Energy Drift [au]  DIIS error drift  Gradient drift
       48            5.6843E-14         5.0024E-12       5.7123E-11
       31            1.4211E-13        -1.0555E-11      -8.1498E-11
 Warning! The DIIS error goes uphill (with respect to step  31 ).
 Warning! The gradient goes uphill (with respect to step   1 ).
 ======================================================================
 ITERATION STEP  50
 CPU time [min]:     0.837                   Wall time [min]:     0.346
 

 SCF control                  : diis
 Damping factor/level shift   : 0.000/0.000
 DIIS [start/end/frequency]   :   2 /*** /  1

 Gradient norm:      4.2928E-11
 DIIS is running in this iteration step.
 RMS of alpha [F,P] :                                  0.00000000002171
 RMS of beta  [F,P] :                                  0.00000000000010
 RMS of alpha difference density:                      0.00000000000075
 RMS of beta  difference density:                      0.00000000000107
 Gap [au]:  0.57947710
 ALPHA OCC:   2   0   0   0   0   1   1   1
 BETA  OCC:   2   0   0   0   0   0   0   1
 
 ***HARTREE-FOCK ENERGY IN STEP  50 IS        -74.8188753498396153 [AU]
 
 Step comparison  Energy Drift [au]  DIIS error drift  Gradient drift
       49           -4.2633E-14        -2.7386E-12       3.8569E-11
       31            9.9476E-14        -1.3293E-11      -4.2928E-11
 Warning! The energy goes uphill (with respect to previous step).
 Warning! The DIIS error goes uphill (with respect to previous step).
 Warning! The DIIS error goes uphill (with respect to step  31 ).
 Warning! The gradient goes uphill (with respect to step   1 ).
 ======================================================================
 ITERATION STEP  51
 CPU time [min]:     0.854                   Wall time [min]:     0.352
 

 SCF control                  : diis
 Damping factor/level shift   : 0.000/0.000
 DIIS [start/end/frequency]   :   2 /*** /  1

 Gradient norm:      9.5840E-11
 DIIS is running in this iteration step.
 RMS of alpha [F,P] :                                  0.00000000004130
 RMS of beta  [F,P] :                                  0.00000000000011
 RMS of alpha difference density:                      0.00000000000115
 RMS of beta  difference density:                      0.00000000000033
 Gap [au]:  0.57947710
 ALPHA OCC:   2   0   0   0   0   1   1   1
 BETA  OCC:   2   0   0   0   0   0   0   1
 
 ***HARTREE-FOCK ENERGY IN STEP  51 IS        -74.8188753498396295 [AU]
 
 Step comparison  Energy Drift [au]  DIIS error drift  Gradient drift
       50            1.4211E-14        -1.9598E-11      -5.2912E-11
       31            1.1369E-13        -3.2892E-11      -9.5840E-11
 Warning! The DIIS error goes uphill (with respect to previous step).
 Warning! The DIIS error goes uphill (with respect to step  31 ).
 Warning! The gradient goes uphill (with respect to previous step).
 Warning! The gradient goes uphill (with respect to step   1 ).
 ======================================================================
 ITERATION STEP  52
 CPU time [min]:     0.870                   Wall time [min]:     0.358
 

 SCF control                  : diis
 Damping factor/level shift   : 0.000/0.000
 DIIS [start/end/frequency]   :   2 /*** /  1

 Gradient norm:      1.3083E-10
 DIIS is running in this iteration step.
 RMS of alpha [F,P] :                                  0.00000000006360
 RMS of beta  [F,P] :                                  0.00000000000010
 RMS of alpha difference density:                      0.00000000000080
 RMS of beta  difference density:                      0.00000000000045
 Gap [au]:  0.57947710
 ALPHA OCC:   2   0   0   0   0   1   1   1
 BETA  OCC:   2   0   0   0   0   0   0   1
 
 ***HARTREE-FOCK ENERGY IN STEP  52 IS        -74.8188753498395869 [AU]
 
 Step comparison  Energy Drift [au]  DIIS error drift  Gradient drift
       51           -4.2633E-14        -2.2293E-11      -3.4988E-11
       31            7.1054E-14        -5.5185E-11      -1.3083E-10
 Warning! The energy goes uphill (with respect to previous step).
 Warning! The DIIS error goes uphill (with respect to previous step).
 Warning! The DIIS error goes uphill (with respect to step  31 ).
 Warning! The gradient goes uphill (with respect to previous step).
 Warning! The gradient goes uphill (with respect to step   1 ).
 ======================================================================
 ITERATION STEP  53
 CPU time [min]:     0.887                   Wall time [min]:     0.364
 

 SCF control                  : diis
 Damping factor/level shift   : 0.000/0.000
 DIIS [start/end/frequency]   :   2 /*** /  1

 Gradient norm:      6.1182E-11
 DIIS is running in this iteration step.
 RMS of alpha [F,P] :                                  0.00000000001802
 RMS of beta  [F,P] :                                  0.00000000000009
 RMS of alpha difference density:                      0.00000000000028
 RMS of beta  difference density:                      0.00000000000020
 Gap [au]:  0.57947710
 ALPHA OCC:   2   0   0   0   0   1   1   1
 BETA  OCC:   2   0   0   0   0   0   0   1
 
 ***HARTREE-FOCK ENERGY IN STEP  53 IS        -74.8188753498396153 [AU]
 
 Step comparison  Energy Drift [au]  DIIS error drift  Gradient drift
       52            2.8422E-14         4.5576E-11       6.9645E-11
       31            9.9476E-14        -9.6092E-12      -6.1182E-11
 Warning! The DIIS error goes uphill (with respect to step  31 ).
 Warning! The gradient goes uphill (with respect to step   1 ).
 ======================================================================
 ITERATION STEP  54
 CPU time [min]:     0.903                   Wall time [min]:     0.370
 

 SCF control                  : diis
 Damping factor/level shift   : 0.000/0.000
 DIIS [start/end/frequency]   :   2 /*** /  1

 Gradient norm:      8.4252E-11
 DIIS is running in this iteration step.
 RMS of alpha [F,P] :                                  0.00000000003402
 RMS of beta  [F,P] :                                  0.00000000000010
 RMS of alpha difference density:                      0.00000000000039
 RMS of beta  difference density:                      0.00000000000102
 Gap [au]:  0.57947710
 ALPHA OCC:   2   0   0   0   0   1   1   1
 BETA  OCC:   2   0   0   0   0   0   0   1
 
 ***HARTREE-FOCK ENERGY IN STEP  54 IS        -74.8188753498396153 [AU]
 
 Step comparison  Energy Drift [au]  DIIS error drift  Gradient drift
       53            0.0000E+00        -1.6003E-11      -2.3069E-11
       31            9.9476E-14        -2.5612E-11      -8.4252E-11
 Warning! The energy goes uphill (with respect to previous step).
 Warning! The DIIS error goes uphill (with respect to previous step).
 Warning! The DIIS error goes uphill (with respect to step  31 ).
 Warning! The gradient goes uphill (with respect to previous step).
 Warning! The gradient goes uphill (with respect to step   1 ).
 ======================================================================
 ITERATION STEP  55
 CPU time [min]:     0.920                   Wall time [min]:     0.376
 

 SCF control                  : diis
 Damping factor/level shift   : 0.000/0.000
 DIIS [start/end/frequency]   :   2 /*** /  1

 Gradient norm:      5.1568E-11
 DIIS is running in this iteration step.
 RMS of alpha [F,P] :                                  0.00000000010543
 RMS of beta  [F,P] :                                  0.00000000000013
 RMS of alpha difference density:                      0.00000000000025
 RMS of beta  difference density:                      0.00000000000026
 Gap [au]:  0.57947710
 ALPHA OCC:   2   0   0   0   0   1   1   1
 BETA  OCC:   2   0   0   0   0   0   0   1
 
 ***HARTREE-FOCK ENERGY IN STEP  55 IS        -74.8188753498395442 [AU]
 
 Step comparison  Energy Drift [au]  DIIS error drift  Gradient drift
       54           -7.1054E-14        -7.1405E-11       3.2684E-11
       31            2.8422E-14        -9.7018E-11      -5.1568E-11
 Warning! The energy goes uphill (with respect to previous step).
 Warning! The DIIS error goes uphill (with respect to previous step).
 Warning! The DIIS error goes uphill (with respect to step  31 ).
 Warning! The gradient goes uphill (with respect to step   1 ).
 ======================================================================
 ITERATION STEP  56
 CPU time [min]:     0.938                   Wall time [min]:     0.383
 

 SCF control                  : diis
 Damping factor/level shift   : 0.000/0.000
 DIIS [start/end/frequency]   :   2 /*** /  1

 Gradient norm:      5.5490E-11
 DIIS is running in this iteration step.
 RMS of alpha [F,P] :                                  0.00000000004845
 RMS of beta  [F,P] :                                  0.00000000000011
 RMS of alpha difference density:                      0.00000000000033
 RMS of beta  difference density:                      0.00000000000036
 Gap [au]:  0.57947710
 ALPHA OCC:   2   0   0   0   0   1   1   1
 BETA  OCC:   2   0   0   0   0   0   0   1
 
 ***HARTREE-FOCK ENERGY IN STEP  56 IS        -74.8188753498395869 [AU]
 
 Step comparison  Energy Drift [au]  DIIS error drift  Gradient drift
       55            4.2633E-14         5.6982E-11      -3.9219E-12
       31            7.1054E-14        -4.0036E-11      -5.5490E-11
 Warning! The DIIS error goes uphill (with respect to step  31 ).
 Warning! The gradient goes uphill (with respect to previous step).
 Warning! The gradient goes uphill (with respect to step   1 ).
[...]
    0.011465  3a 2b -> 53a 4b                                           
   -0.016297  3a 2b -> 28a 7b                                           
   -0.012685  3a 2b -> 53a 7b                                           
   -0.010299  3a 2b -> 28a 16b                                          
   -0.015463  3a 2b -> 29a 5b                                           
    0.011465  3a 2b -> 54a 5b                                           
    0.016297  3a 2b -> 29a 6b                                           
   -0.012685  3a 2b -> 54a 6b                                           
   -0.010299  3a 2b -> 29a 15b                                          
    0.014386  3a 2b -> 17a 18b                                          
   -0.014640  3a 2b -> 33a 18b                                          
   -0.011993  3a 2b -> 33a 43b                                          
   -0.013619  3a 4a -> 16a 17a                                          
    0.011195  3a 4a -> 28a 30a                                          
    0.012347  3a 4a -> 17a 31a                                          
    0.011757  3a 4a -> 16a 33a                                          
    0.013101  3a 4a -> 31a 33a                                          
   -0.013619  3a 5a -> 15a 17a                                          
   -0.011195  3a 5a -> 29a 30a                                          
   -0.012347  3a 5a -> 17a 32a                                          
    0.011757  3a 5a -> 15a 33a                                          
   -0.013101  3a 5a -> 32a 33a                                          
    0.012940  4a 5a -> 15a 16a                                          
    0.012022  4a 5a -> 26a 27a                                          
    0.011966  4a 5a -> 15a 31a                                          
    0.011966  4a 5a -> 16a 32a                                          
    0.013361  4a 5a -> 31a 32a                                          

 ************************ 2025-08-21 05:47:56 *************************
 Executing goldstone...

 Generation of CC equations in terms of H and T...
 Generation of antisymmetrized Goldstone diagrams...
 Number of diagrams in T^1 equations:    15
 Number of diagrams in T^2 equations:    38
 Number of diagrams in T^3 equations:    50
 Number of diagrams in T^4 equations:     5
 Translation of diagrams to factorized equations...
 Optimizing intermediate calculation...
 Number of floating-point operations per iteration step:   1.9610E+13
 Probable CPU time per iteration step (hours):          196.10
 Required memory (Mbytes):        184636.2
 Number of intermediates:                                  80
 Number of intermediates to be stored:                     32
 Length of intermediate file (Mbytes):          3069.2

 ************************ 2025-08-21 06:07:17 *************************
 Executing xmrcc...

 **********************************************************************
 CC(3)(4) calculation 
 
 
 Allocation of        25600.0 Mbytes of memory...
 Number of spinorbitals:                   396
 Number of alpha electrons:                        5
 Number of beta electrons:                         3
 Spin multiplicity:                     2
 z-component of spin:  1.0
 Spatial symmetry:                      4
 Convergence criterion:  1.0E-06
 Construction of occupation graphs...
 Number of                     0 -fold excitations:                      1
 Number of                     1 -fold excitations:                    300
 Number of                     2 -fold excitations:                 108753
 Number of                     3 -fold excitations:               22206254
 Total number of configurations:               22315308
 Calculation of coupling coefficients...
 Length of intermediate file (Mbytes):          2337.6
 
 ======================================================================
 
 Spin case  1   Alpha:  1   Beta:  3
 Number of excitations:              147015116
 Spin case  2   Alpha:  2   Beta:  2
 Number of excitations:             1315708296
 Spin case  3   Alpha:  3   Beta:  1
 Number of excitations:              861315288
 Spin case  4   Alpha:  4   Beta:  0
 Number of excitations:               34874540
 Number of                     4 -fold excitations:             2358913240
 
 Memory requirements /Mbyte/: 
               Minimal        Optimal
 Real*8:       5613.7644     11727.2258
 Integer:       600.7388
 Total:        6214.5032     12327.9646
 

 ************************ 2025-08-21 06:07:58 *************************
 Executing mrcc...

 **********************************************************************
 CCSDT(Q) calculation                                                   
 
 
 OpenMP parallel version is running.
 Number of CPU cores:   4
 Allocation of        11727.2 Mbytes of memory...
 Number of spinorbitals: 396
 Number of alpha electrons:  5
 Number of beta  electrons:  3
 Spin multiplicity: 3
 z-component of spin:  1.0
 Spatial symmetry: 4
 Convergence criterion:  1.0E-06
 Construction of occupation graphs...
 Number of 0-fold excitations: 1
 Number of 1-fold excitations: 300
 Number of 2-fold excitations: 108753
 Number of 3-fold excitations: 22206254
 Total number of determinants: 22315308
 Calculation of coupling coefficients...
 Initial cluster amplitudes are read from unit 16.
 Length of intermediate file (Mbytes):    2337.6
 Reading integral list from unit 55...
 Sorting integrals...
 Sorting integrals...
 Sorting integrals...
 Sorting integrals...
 Energy of reference determinant [au]:     -74.818875349840
 Calculation of MP denominators...
 
 Starting CC iteration...
 ======================================================================
 Norm of residual vector:     0.28483840
 CPU time [min]:    14.770                   Wall time [min]:     7.868
 
 Iteration  1  CC energy:   -75.05778008  Energy decrease:   5.0952E-10
 ======================================================================
 Norm of residual vector:     0.03604956
 CPU time [min]:    24.094                   Wall time [min]:    11.524
 
 Iteration  2  CC energy:   -75.06145408  Energy decrease:   0.00367400
 ======================================================================
 Norm of residual vector:     0.01275191
 CPU time [min]:    33.422                   Wall time [min]:    15.185
 
 Iteration  3  CC energy:   -75.06227991  Energy decrease:   0.00082583
 ======================================================================
 Norm of residual vector:     0.00362927
 CPU time [min]:    42.354                   Wall time [min]:    18.717
 
 Iteration  4  CC energy:   -75.06240829  Energy decrease:   0.00012837
 ======================================================================
 Norm of residual vector:     0.00169663
 CPU time [min]:    51.329                   Wall time [min]:    22.254
 
 Iteration  5  CC energy:   -75.06246607  Energy decrease:   0.00005778
 ======================================================================
 Norm of residual vector:     0.00085357
 CPU time [min]:    60.423                   Wall time [min]:    25.833
 
 Iteration  6  CC energy:   -75.06247895  Energy decrease:   0.00001289
 ======================================================================
 Norm of residual vector:     0.00044577
 CPU time [min]:    69.887                   Wall time [min]:    29.586
 
 Iteration  7  CC energy:   -75.06247714  Energy decrease:   0.00000181
 ======================================================================
 Norm of residual vector:     0.00018168
 CPU time [min]:    79.215                   Wall time [min]:    33.272
 
 Iteration  8  CC energy:   -75.06247932  Energy decrease:   0.00000218
 ======================================================================
 Norm of residual vector:     0.00007299
 CPU time [min]:    89.644                   Wall time [min]:    37.251
 
 Iteration  9  CC energy:   -75.06247978  Energy decrease:   0.00000046
 ======================================================================
 Norm of residual vector:     0.00003263
 CPU time [min]:   100.637                   Wall time [min]:    41.354
 
 Iteration 10  CC energy:   -75.06247918  Energy decrease:   0.00000060
 ======================================================================
 Norm of residual vector:     0.00001421
 CPU time [min]:   111.103                   Wall time [min]:    45.315
 
 Iteration 11  CC energy:   -75.06247914  Energy decrease:   0.00000004
 ======================================================================
 Norm of residual vector:     0.00000550
 CPU time [min]:   121.374                   Wall time [min]:    49.296
 
 Iteration 12  CC energy:   -75.06247920  Energy decrease:   0.00000006
 ======================================================================
 Norm of residual vector:     0.00000210
 CPU time [min]:   130.865                   Wall time [min]:    53.035
 
 Iteration 13  CC energy:   -75.06247919  Energy decrease:   0.00000001
 ======================================================================
 Norm of residual vector:     0.00000065
 CPU time [min]:   140.427                   Wall time [min]:    57.208
 
 Iteration 14  CC energy:   -75.06247918  Energy decrease:   0.00000001
 ======================================================================
 
 Iteration has converged in 14 steps.
 
 Final results:
 Total CCSDT energy [au]:                     -75.062479177615
 
 Perturbative corrections are calculated...
 ======================================================================
 Spin case  1   Alpha:  1   Beta:  3
 Number of excitations:        147015116
 ispcorr1 :     0.000000000000
 ispcorr2 :     0.000000000000
 corr1    :     0.000000000000
 corr2    :     0.000000000000
 CPU time [min]:   692.205                   Wall time [min]:   198.337
 ======================================================================
 Spin case  2   Alpha:  2   Beta:  2
 Number of excitations:        1315708296
 ispcorr1 :     0.000000000000
 ispcorr2 :     0.000000000000
 corr1    :     0.000000000000
 corr2    :     0.000000000000
 CPU time [min]:  2257.043                   Wall time [min]:   606.813
 ======================================================================
 Spin case  3   Alpha:  3   Beta:  1
 Number of excitations:        861315288
 ispcorr1 :     0.000000000000
 ispcorr2 :     0.000000000000
 corr1    :     0.000000000000
 corr2    :     0.000000000000
 CPU time [min]:  3293.147                   Wall time [min]:   870.354
 ======================================================================
 Spin case  4   Alpha:  4   Beta:  0
 Number of excitations:        34874540
 ispcorr1 :     0.000000000000
 ispcorr2 :     0.000000000000
 corr1    :     0.000000000000
 corr2    :     0.000000000000
 CPU time [min]:  3393.690                   Wall time [min]:   896.389
 ======================================================================
 Number of 4-fold excitations: 2358913240
 
 T_2^+ contribution [au]:                      -0.000000947353
 corr1 :    -0.000000947353
 corr3 :     0.000000000000
 corr4 :     0.000000000000
 T_3^+ contribution [au]:                      -0.000000599332
 T_1^+ * T_2^+ contribution [au]:               0.000000009473
 T_1^+ * <ab||ij> contribution [au]:            0.000000012921
 T_2^+ * f_ai contribution [au]:               -0.000000000000
 corr2 :    -0.000000599332
 corr3 :     0.000000009473
 corr4 :     0.000000012921
 
 T_2^+ contribution [au]:                       0.000003464311
 corr1 :     0.000003464311
 corr3 :     0.000000009473
 corr4 :     0.000000012921
 T_3^+ contribution [au]:                      -0.000055267465
 T_1^+ * T_2^+ contribution [au]:               0.000001895807
 T_1^+ * <ab||ij> contribution [au]:            0.000001361902
 T_2^+ * f_ai contribution [au]:               -0.000000000000
 corr2 :    -0.000055267465
 corr3 :     0.000001905279
 corr4 :     0.000001374823
 
 T_2^+ contribution [au]:                       0.000005432820
 corr1 :     0.000005432820
 corr3 :     0.000001905279
 corr4 :     0.000001374823
 T_3^+ contribution [au]:                      -0.000103548320
 T_1^+ * T_2^+ contribution [au]:               0.000005593370
 T_1^+ * <ab||ij> contribution [au]:            0.000003554336
 T_2^+ * f_ai contribution [au]:               -0.000000000000
 corr2 :    -0.000103548320
 corr3 :     0.000007498650
 corr4 :     0.000004929159
 
 T_2^+ contribution [au]:                       0.000005716445
 corr1 :     0.000005716445
 corr3 :     0.000007498650
 corr4 :     0.000004929159
 T_3^+ contribution [au]:                      -0.000104583759
 T_1^+ * T_2^+ contribution [au]:               0.000005754599
 T_1^+ * <ab||ij> contribution [au]:            0.000003647610
 T_2^+ * f_ai contribution [au]:               -0.000000000000
 corr2 :    -0.000104583759
 corr3 :     0.000013253249
 corr4 :     0.000008576769
 
 CPU time [min]:  3395.245                   Wall time [min]:   897.190
 
 Total CCSDT[Q] energy [au]:                  -75.062473461170
 Total CCSDT(Q)/A energy [au]:                -75.062564791680
 Total CCSDT(Q)/B energy [au]:                -75.062569468160
 
 Dominant cluster amplitudes
 Printing threshold:  1.00E-02
 
    1.000000  Reference determinant                                     
   -0.012288  2a 2b -> 18a 18b                                          
   -0.016156  3a 3b -> 30a 27b                                          
   -0.010557  3a 3b -> 55a 27b                                          
    0.010981  3a 3b -> 30a 51b                                          
    0.012395  3a 3b -> 55a 51b                                          
   -0.012496  3a 3b -> 28a 28b                                          
    0.012496  3a 3b -> 29a 29b                                          
    0.013721  3a 3b -> 17a 8b                                           
   -0.013209  3a 3b -> 8a 17b                                           
   -0.027658  3a 3b -> 17a 17b                                          
    0.022592  3a 3b -> 33a 17b                                          
   -0.021904  3a 3b -> 17a 33b                                          
    0.024202  3a 3b -> 33a 33b                                          
   -0.010085  3a 3b -> 58a 33b                                          
   -0.010002  4a 3b -> 16a 8b                                           
    0.019763  4a 3b -> 16a 17b                                          
    0.016790  4a 3b -> 31a 17b                                          
    0.015465  4a 3b -> 16a 33b                                          
    0.017235  4a 3b -> 31a 33b                                          
    0.010706  4a 3b -> 17a 7b                                           
   -0.010002  5a 3b -> 15a 8b                                           
    0.019763  5a 3b -> 15a 17b                                          
   -0.016790  5a 3b -> 32a 17b                                          
    0.015465  5a 3b -> 15a 33b                                          
   -0.017235  5a 3b -> 32a 33b                                          
    0.010706  5a 3b -> 17a 6b                                           
    0.016741  5a 2b -> 27a 5b                                           
    0.012007  5a 2b -> 51a 5b                                           
   -0.017625  5a 2b -> 27a 6b                                           
   -0.013279  5a 2b -> 51a 6b                                           
    0.011128  5a 2b -> 27a 15b                                          
    0.010126  5a 2b -> 51a 15b                                          
   -0.016741  5a 2b -> 26a 4b                                           
    0.012007  5a 2b -> 52a 4b                                           
    0.017625  5a 2b -> 26a 7b                                           
   -0.013279  5a 2b -> 52a 7b                                           
    0.011128  5a 2b -> 26a 16b                                          
   -0.010126  5a 2b -> 52a 16b                                          
   -0.014366  5a 2b -> 15a 18b                                          
    0.014688  5a 2b -> 32a 18b                                          
    0.011976  5a 2b -> 32a 43b                                          
   -0.016741  4a 2b -> 27a 4b                                           
   -0.012007  4a 2b -> 51a 4b                                           
    0.017625  4a 2b -> 27a 7b                                           
    0.013279  4a 2b -> 51a 7b                                           
    0.011128  4a 2b -> 27a 16b                                          
    0.010126  4a 2b -> 51a 16b                                          
   -0.016741  4a 2b -> 26a 5b                                           
    0.012007  4a 2b -> 52a 5b                                           
    0.017625  4a 2b -> 26a 6b                                           
   -0.013279  4a 2b -> 52a 6b                                           
   -0.011128  4a 2b -> 26a 15b                                          
    0.010126  4a 2b -> 52a 15b                                          
   -0.014366  4a 2b -> 16a 18b                                          
   -0.014688  4a 2b -> 31a 18b                                          
   -0.011976  4a 2b -> 31a 43b                                          
    0.015494  2a 3b -> 18a 17b                                          
    0.014824  2a 3b -> 18a 33b                                          
    0.012460  2a 3b -> 43a 33b                                          
    0.016369  3a 2b -> 28a 4b                                           
    0.011761  3a 2b -> 53a 4b                                           
   -0.017199  3a 2b -> 28a 7b                                           
   -0.013012  3a 2b -> 53a 7b                                           
   -0.010762  3a 2b -> 28a 16b                                          
   -0.016369  3a 2b -> 29a 5b                                           
    0.011761  3a 2b -> 54a 5b                                           
    0.017199  3a 2b -> 29a 6b                                           
   -0.013012  3a 2b -> 54a 6b                                           
   -0.010762  3a 2b -> 29a 15b                                          
    0.015179  3a 2b -> 17a 18b                                          
   -0.015015  3a 2b -> 33a 18b                                          
   -0.012199  3a 2b -> 33a 43b                                          
   -0.015060  3a 4a -> 16a 17a                                          
    0.011811  3a 4a -> 28a 30a                                          
    0.012998  3a 4a -> 17a 31a                                          
    0.012341  3a 4a -> 16a 33a                                          
    0.013526  3a 4a -> 31a 33a                                          
   -0.015060  3a 5a -> 15a 17a                                          
   -0.011811  3a 5a -> 29a 30a                                          
   -0.012998  3a 5a -> 17a 32a                                          
    0.012341  3a 5a -> 15a 33a                                          
   -0.013526  3a 5a -> 32a 33a                                          
    0.014117  4a 5a -> 15a 16a                                          
    0.012627  4a 5a -> 26a 27a                                          
    0.012481  4a 5a -> 15a 31a                                          
    0.012481  4a 5a -> 16a 32a                                          
    0.013727  4a 5a -> 31a 32a                                          
 
 ************************ 2025-08-21 21:05:12 *************************
                      Normal termination of mrcc.
 **********************************************************************
Program finished with exit code 0 at: Thu 21 Aug 2025 09:05:12 PM EDT
