Starting run at: Tue 26 Aug 2025 05:57:26 AM EDT
 --invoking executable--
/cvmfs/restricted.computecanada.ca/easybuild/software/2023/x86-64-v4/Compiler/intel2023/cfour/2.1/bin/xjoda


   *************************************************************************
         <<<     CCCCCC     CCCCCC   |||     CCCCCC     CCCCCC   >>>
       <<<      CCC        CCC       |||    CCC        CCC         >>>
      <<<      CCC        CCC        |||   CCC        CCC            >>>
    <<<        CCC        CCC        |||   CCC        CCC              >>>
      <<<      CCC        CCC        |||   CCC        CCC            >>>
       <<<      CCC        CCC       |||    CCC        CCC         >>>
         <<<     CCCCCC     CCCCCC   |||     CCCCCC     CCCCCC   >>>
   *************************************************************************

     ****************************************************************
     * CFOUR Coupled-Cluster techniques for Computational Chemistry *
     ****************************************************************
 

   Department of Chemistry                Institut fuer Physikalische Chemie
   University of Florida                  Universitaet Mainz
   Gainesville, FL 32611, USA             D-55099 Mainz, Germany

   Department of Chemistry                Fakultaet fuer Chemie und Biowiss.
   Johns Hopkins University               Karlsruher Institut fuer Technologie
   Baltimore, MD 21218, USA               D-76131 Karlsruhe, Germany

   Department of Chemistry                Department of Physical Chemistry
   Southern Methodist University          Eotvos Lorand University
   Dallas, TX 75275, USA                  H-1053 Budapest, Hungary

 
                       Version 2.1
 
                     rc31701                                           
                     Tue 26 Aug 2025 05:57:26 AM EDT                   
                     integer*8 version is running
 
********************************************************************************
*                          Input from ZMAT file                                *
********************************************************************************
TITLE                                                                           
O                                                                               
                                                                                
*ACES2(CALC=SCF                                                                 
#FROZEN_CORE=ON                                                                 
#DROPMO=1                                                                       
INPUT_MRCC=OFF                                                                  
#CC_PROG=MRCC                                                                   
XFORM_TOL=18                                                                    
SAVE_INTS=ON                                                                    
SCF_EXPORDER=6                                                                  
SCF_EXPSTART=5                                                                  
#SCF_DAMPING=1000                                                               
SCF_EXTRAPOLATION=ON                                                            
SCF_CONV=9                                                                      
SCF_MAXCYC=9999                                                                 
CC_CONV=10                                                                      
CC_MAXCYC=999                                                                   
T3_EXTRAPOL=ON                                                                  
REFERENCE=UHF                                                                   
CHARGE=+0                                                                       
MULT=3                                                                          
ABCDTYPE=STANDARD                                                               
OCCUPATION=2-1-1-0-1-0-0-0/2-1-0-0-0-0-0-0                                      
MEM=8                                                                           
MEM_UNIT=GB                                                                     
BASIS=SPECIAL)                                                                  
                                                                                
O:aCV6Z-MOLP-U                                                                  
                                                                                
********************************************************************************
  @GTFLGS-W, Keyword #FROZEN_CORE not known and is ignored.
  @GTFLGS-W, Keyword #DROPMO not known and is ignored.
  @GTFLGS-W, Keyword #CC_PROG not known and is ignored.
  @GTFLGS-W, Keyword #SCF_DAMPING not known and is ignored.
    -------------------------------------------------------------------
                    CFOUR Control Parameters 
    -------------------------------------------------------------------
        External           Internal           Value            Units
          Name               Name
    -------------------------------------------------------------------
       ABCDTYPE             IABCDT         STANDARD    [  0]    ***   
       ANHARMONIC           IANHAR         OFF         [  0]    ***   
       ANH_ALGORIT          IANALG         STANDARD    [  0]    ***   
       ANH_DERIVAT          IANDER         SECOND      [  1]    ***   
       ANH_MODE             ANHMOD         VIBRATION   [  0]    ***   
       ANH_STEPSIZ          ICUBST             50000          x 10-6  
       ANH_SYMMETR          IANHSM         ABELIAN     [  0]    ***   
       AO_LADDERS           IAOLAD         SINGLEPASS  [  1]    ***   
       AV_SCF               IAVSCF         OFF         [  0]    ***   
       BASIS                IBASIS         SPECIAL     [  0]    ***   
       BOTHVECTORS          BOTHVC         OFF         [  0]    ***   
       BOX_POTENT           IPIAB          OFF         [  0]    ***   
       BREIT                IBREIT         OFF         [  0]    ***   
       BRUCK_CONV           IBRTOL          10D-  4             ***   
       BRUECKNER            IBRKNR         OFF         [  0]    ***   
       BUFFERSIZE           IBUFFS              4096            ***   
       CACHE_RECS           ICHREC             10               ***   
       CALCLEVEL            ICLLVL         SCF         [  0]    ***   
       CCORBOPT             ICCORB         OFF         [  0]  x 0.01  
       CC_CONV              ICCCNV          10D- 10             ***   
       CC_EXPORDER          ICCEOR              0               ***   
       CC_EXTRAPOL          ICCEXT         DIIS        [  1]    ***   
       CC_GUESS             ICCGES         MP2         [  0]    ***   
       CC_MAXCYC            ICCCYC            999              cycles 
       CC_PROGRAM           ICCPRO         VCC         [  0]    ***   
       CHARGE               ICHRGE              0               ***   
       CHOLESKY             ICHOLE         OFF         [  0]    ***   
       CIS_CONV             ICISTL              5               ***   
       COMM_SIZE            IPSIZE            ***               ***   
       CONSTANT             ICONST         OLD         [  1]    ***   
       CONTINUUM            ICONTU         NONE        [  0]    ***   
       CONTRACTION          ICNTYP         GENERAL     [  1]    ***   
       COORDINATES          ICOORD         INTERNAL    [  0]    ***   
       CPHF_CONVER          ICPHFT          10D- 16             ***   
       CPHF_MAXCYC          ICPHFC             64              cycles 
       CUBIC                ICUBIC         OFF         [  0]    ***   
       CURVILINEAR          ICURVY         OFF         [  0]    ***   
       DBOC                 IDBOC          OFF         [  0]    ***   
       DCT                  IDCT           OFF         [  0]    ***   
       DERIV_LEV            IDRLVL         ZERO        [  0]    ***   
       DEVMEM_SIZE          IDVMEM         *********           MByte  
       DIAG_MRCC            IEOMST          10D-  0             ***   
       DIFF_TYPE            IDIFTY         RELAXED     [  0]    ***   
       DIRECT               IDIRCT         OFF         [  0]    ***   
       DROPMO               IDRPMO      NONE         
       ECP                  IECP           OFF         [  0]    ***   
       EIGENVECTOR          IVEC                1               ***   
       EL_ANHARM            IELANH         OFF         [  0]    ***   
       EOMFOLLOW            IEOMSR         ENERGY      [  0]    ***   
       EOMIP                IEOMIP         OFF         [  0]    ***   
       EOMLEVEL             HBARFM         SAME        [  0]    ***   
       EOM_MRCC             IMRCCE         NEW         [  1]    ***   
       EOM_NONIT            EOMNON         OFF         [  0]    ***   
       EOM_NSING            IEOMSI          10D-  0             ***   
       EOM_NSTATES          IMRCCD         DAVIDSON    [  0]    ***   
       EOM_NTRIP            IEOMTR          10D-  0             ***   
       EOM_ORDER            IEXORD         ENERGY      [  0]    ***   
       EOM_PROPSTA          IEOMST              0               ***   
       ESTATE_CONV          IEXTOL          10D-  5             ***   
       ESTATE_DIAG          IEXDIG         ITERATIVE   [  0]    ***   
       ESTATE_LOCK          IESLOC         ON          [  1]    ***   
       ESTATE_MAXC          IEXMXC             40               ***   
       ESTATE_PROP          IEXPRP         OFF         [  0]    ***   
       EVAL_HESS            IRECAL              0            # of cyc.
       EXCITATION           IEXCIT              0               ***   
       EXCITE               IEXCIT         NONE        [  0]    ***   
       EXTERN_POT           IEXPOT         OFF         [  0]    ***   
       FCGRADNEW            IFCGNW         OFF         [  0]    ***   
       FC_FIELD             IFINFC              0             x 10-6  
       FD_CALTYPE           IFDCAL         GRADONLY    [  0]    ***   
       FD_PROJECT           IFDPRJ         OFF         [  1]    ***   
       FD_STEPSIZE          IDISFD              0            10-4 bohr
       FD_USEGROUP          IFDGRP         FULL        [  0]    ***   
       FILE_RECSIZ          IFLREC              4096           words  
       FINITE_PERT          IFIPER              0             x 10-6  
       FIXGEOM              IFIXGM         OFF         [  0]    ***   
       FOCK                 IFOCK          AO          [  1]    ***   
       FREQ_ALGORI          IVIALG         STANDARD    [  0]    ***   
       FROZEN_CORE          IFROCO         OFF         [  0]    ***   
       GAMMA_ABCD           IGABCD         STORE       [  0]    ***   
       GAMMA_ABCI           IGABCI         STORE       [  0]    ***   
       GENBAS_1             IGNBS1              0               ***   
       GENBAS_2             IGNBS2              0               ***   
       GENBAS_3             IGNBS3              0               ***   
       GENBAS_4             IGNBS4              0               ***   
       GEO_CONV             ICONTL              5              H/bohr 
       GEO_MAXCYC           IOPTCY             50               ***   
       GEO_MAXSTEP          IMXSTP            300            millibohr
       GEO_METHOD           INR            SINGLE_POINT[  5]    ***   
       GIAO                 IGIAO          OFF         [  1]    ***   
       GIMIC                IGIMIC         OFF         [  0]    ***   
       GRID                 IGRID          OFF         [  0]    ***   
       GRID_ALGO            IGALGO         SERIAL      [  0]    ***   
       GUESS                IGUESS         MOREAD      [  0]    ***   
       HBAR                 IHBAR          OFF         [  0]    ***   
       HESS_TYPE            IHESTP         SCF         [  0]    ***   
       HF2_FILE             IHF2Fl         USE         [  1]    ***   
       HFSTABILITY          ISTABL         OFF         [  0]    ***   
       INCORE               INCORE         OFF         [  0]    ***   
       INPUT_MRCC           IMRCC          OFF         [  0]    ***   
       INTEGRALS            INTTYP         VMOL        [  1]    ***   
       JODA_PRINT           IJPRNT              0               ***   
       KEYWORD_OUT          IDMPKW         NO          [  0]    ***   
       LINDEP_TOL           ILINDP              8               ***   
       LINEQ_CONV           IZTACN          10D-  7           cycles  
       LINEQ_EXPOR          ILMAXD              5               ***   
       LINEQ_MAXCY          ILMAXC            100               ***   
       LINEQ_TYPE           ILTYPE         DIIS        [  1]    ***   
       LOCK_ORBOCC          ILOCOC         OFF         [  0]    ***   
       MEMORY_SIZE          IMEMSZ         *********           words  
       MEM_UNIT             IMEMU          GB          [  3]    ***   
       MRCC                 IMRCCC         OFF         [  0]    ***   
       MULTIPLICTY          IMULTP              3               ***   
       NACOUPLING           IVCOUP         OFF         [  0]    ***   
       NEGEVAL              IDIE           ABORT       [  0]    ***   
       NEWNORM              INEWNO         OFF         [  0]    ***   
       NON-HF               INONHF         OFF         [  0]    ***   
       NTOP_TAMP            ITOPT2             15               ***   
       NUC_MODEL            INUCMO         POINT       [  0]    ***   
       OCCUPATION           IOCCU  A   2,  1,  1,  0,  1,  0,  0,  0,
                                   B   2,  1,  0,  0,  0,  0,  0,  0,
       OPEN-SHELL           IOPEN          SPIN-ORBITAL[  0]    ***   
       OPTVIB               IOPTVB         OFF         [  0]    ***   
       ORBITALS             IORBTP         STANDARD    [  0]    ***   
       PARALLEL             IPARAL         ON          [  1]    ***   
       PARA_INT             IPINTS         ON          [  1]    ***   
       PARA_PRINT           IPPRIN              0               ***   
       PERT_ORB             IPTORB         STANDARD    [  0]    ***   
       POINTS               IGRDFD              0               ***   
       PRINT                IPRNT               0               ***   
       PROPS                IPROPS         OFF         [  0]    ***   
       PROP_INTEGR          IINTYP         INTERNAL    [  0]    ***   
       PSI                  IPSI           OFF         [  0]    ***   
       QC_ALG               IQCALG         FLM         [  0]    ***   
       QC_LINALG            IQCLIN         TRIDIAG     [  2]    ***   
       QC_MAXCYC            IQCMAX          10D-100           cycles  
       QC_MAXSCFCY          IQCMSC          10D- 15           cycles  
       QC_RTRUST            IQCRTR          10D-  0           x 10-3  
       QC_SKIPSCF           IQCSKI         OFF         [  0]    ***   
       QC_START             IQCSTA          10D-  1             ***   
       QRHFGUESS            IQGUES         OFF         [  0]    ***   
       QUARTIC              IQUART         OFF         [  0]    ***   
       RAMAN_INT            IRAMIN         OFF         [  0]    ***   
       RAMAN_ORB            IRAMRE         UNRELAXED   [  0]    ***   
       RDO                  IRDOFM         OFF         [  0]    ***   
       REDUCE_REPR          REDREP         Ir          [  0]    ***   
       REFERENCE            IREFNC         UHF         [  1]    ***   
       RELATIVIST           IRELAT         OFF         [  0]    ***   
       RELAX_DENS           IRDENS         OFF         [  0]    ***   
       RESET_FLAGS          IRESET         OFF         [  0]    ***   
       RESTART_CC           ICCRES         OFF         [  0]    ***   
       ROT_EVEC             ROTVEC              0               ***   
       SAVE_INTS            ISVINT         ON          [  1]    ***   
       SCALE_ON             ISTCRT              0               ***   
       SCF_CONV             ISCFCV          10D-  9             ***   
       SCF_DAMPING          IDAMP               0             x 10-3  
       SCF_EXPORDE          IRPPOR              6               ***   
       SCF_EXPSTAR          IRPPLS              5               ***   
       SCF_EXTRAPO          IRPP           ON          [  1]    ***   
       SCF_MAXCYC           ISCFCY            ***              cycles 
       SCF_NOSTOP           ISCFST         OFF         [  0]    ***   
       SCF_PRINT            ISCFPR              0               ***   
       SCF_PROG             ISCFPR         SCF         [  0]    ***   
       SD_FIELD             IFINSD              0             x 10-6  
       SOPERT               IPERSO         OFF         [  0]    ***   
       SPHERICAL            IDFGHI         ON          [  1]    ***   
       SPINORBIT            ISOCAL         OFF         [  0]    ***   
       SPINROTATIO          ISRCON         OFF         [  0]    ***   
       SPIN_FLIP            ISPFLP         OFF         [  0]    ***   
       SPIN_ORBIT           ISPORB         OFF         [  0]    ***   
       SPIN_SCAL            ISCSMP         OFF         [  0]    ***   
       STEEPSCALE           ISTPSC              1000          x 10-3  
       SUBGROUP             ISUBGP         DEFAULT     [  0]    ***   
       SUBGRPAXIS           ISBXYZ         X           [  0]    ***   
       SYMMETRY             ISYM           ON          [  0]    ***   
       SYM_CHECK            ISYMCK         OVERRIDE    [  1]    ***   
       T3_EXTRAPOL          IT3EXT         ON          [  1]    ***   
       T4_EXTRAPOL          IT4EXP         OFF         [  0]    ***   
       TAMP_SUM             IEVERY              0               ***   
       TESTSUITE            ITESTS         OFF         [  0]    ***   
       THERMOCH             ITHERM         OFF         [  0]    ***   
       TOL_CHOLESK          ITOLCH          10D-  4             ***   
       TRANGRAD             IRESRM         OFF         [  0]    ***   
       TRANS_INV            ITRAIN         USE         [  0]    ***   
       TREAT_PERT           ITREAT         SIMULTANEOUS[  0]    ***   
       TRIP_ALGORI          ITRALG         NORMAL      [  0]    ***   
       UIJ_THRESHO          IUIJTH              1               ***   
       UNITS                IUNITS         ANGSTROM    [  0]    ***   
       UNOS                 IUNOS          OFF         [  0]    ***   
       UPDATE_HESS          IHUPDT         ON          [  1]    ***   
       VIBPHASE             ISETPH         STANDARD    [  0]    ***   
       VIBRATION            IVIB           NO          [  0]    ***   
       VIB_ALGORIT          IGEALG         STANDARD    [  0]    ***   
       VNATORB              IVNORB         OFF         [  0]    ***   
       VTRAN                IVTRAN         FULL/PARTIAL[  0]    ***   
       XFIELD               IXEFLD              0             x 10-6  
       XFORM_TOL            IXFTOL          10D- 18             ***   
       YFIELD               IYEFLD              0             x 10-6  
       ZFIELD               IZEFLD              0             x 10-6  
       ZSCALE_EXP           IZEXPS         OFF         [  0]    ***   
    -------------------------------------------------------------------
   1 entries found in Z-matrix 
   Job Title : TITLE                                                                           
   Rotational constants (in cm-1): 

   Rotational constants (in MHz): 

********************************************************************************
   The full molecular point group is I h .
   The largest Abelian subgroup of the full molecular point group is D2h .
   The computational point group is D2h .
********************************************************************************
  ECPDATA file not present.   Using default ECPDATA. 
  @GTFLGS-W, Keyword #FROZEN_CORE not known and is ignored.
  @GTFLGS-W, Keyword #DROPMO not known and is ignored.
  @GTFLGS-W, Keyword #CC_PROG not known and is ignored.
  @GTFLGS-W, Keyword #SCF_DAMPING not known and is ignored.
  There are  252 basis functions.
 @GEOPT-W, Archive file not created for single-point calculation.
 @CHECKOUT-I, Total execution time (CPU/WALL):        0.07/       0.15 seconds.
--executable xjoda finished with status     0 in        0.17 seconds (walltime).
 --invoking executable--
/cvmfs/restricted.computecanada.ca/easybuild/software/2023/x86-64-v4/Compiler/intel2023/cfour/2.1/bin/xvmol
 SERIAL VERSION OF MOLECULE STARTED
********************************************************************************
                    INPUT FROM MOL FILE
********************************************************************************
INTGRL        1    0    1    0    0    0    0    0    0                         
         *** CFOUR Program System (Release V0.1) ***                            
TITLE                                                                           
    1    3 X  Y   Z   0.10E-08              0    0                              
   9999.00      3.00                                                            
          8.00000000    1    7    1    1    1    1    1    1    1               
O #1   0.000000000000000   0.000000000000000   0.000000000000000                
   22   22                                                                      
   570800.000000000        1.00000000000000       0.000000000000000E+000        
  0.000000000000000E+000  0.000000000000000E+000  0.000000000000000E+000        
  0.000000000000000E+000  0.000000000000000E+000  0.000000000000000E+000        
  0.000000000000000E+000  0.000000000000000E+000  0.000000000000000E+000        
  0.000000000000000E+000  0.000000000000000E+000  0.000000000000000E+000        
  0.000000000000000E+000  0.000000000000000E+000  0.000000000000000E+000        
  0.000000000000000E+000  0.000000000000000E+000  0.000000000000000E+000        
  0.000000000000000E+000  0.000000000000000E+000                                
   85480.0000000000       0.000000000000000E+000   1.00000000000000             
  0.000000000000000E+000  0.000000000000000E+000  0.000000000000000E+000        
  0.000000000000000E+000  0.000000000000000E+000  0.000000000000000E+000        
  0.000000000000000E+000  0.000000000000000E+000  0.000000000000000E+000        
  0.000000000000000E+000  0.000000000000000E+000  0.000000000000000E+000        
  0.000000000000000E+000  0.000000000000000E+000  0.000000000000000E+000        
  0.000000000000000E+000  0.000000000000000E+000  0.000000000000000E+000        
  0.000000000000000E+000  0.000000000000000E+000                                
   19460.0000000000       0.000000000000000E+000  0.000000000000000E+000        
   1.00000000000000       0.000000000000000E+000  0.000000000000000E+000        
  0.000000000000000E+000  0.000000000000000E+000  0.000000000000000E+000        
  0.000000000000000E+000  0.000000000000000E+000  0.000000000000000E+000        
  0.000000000000000E+000  0.000000000000000E+000  0.000000000000000E+000        
  0.000000000000000E+000  0.000000000000000E+000  0.000000000000000E+000        
  0.000000000000000E+000  0.000000000000000E+000  0.000000000000000E+000        
  0.000000000000000E+000  0.000000000000000E+000                                
   5512.00000000000       0.000000000000000E+000  0.000000000000000E+000        
  0.000000000000000E+000   1.00000000000000       0.000000000000000E+000        
  0.000000000000000E+000  0.000000000000000E+000  0.000000000000000E+000        
  0.000000000000000E+000  0.000000000000000E+000  0.000000000000000E+000        
  0.000000000000000E+000  0.000000000000000E+000  0.000000000000000E+000        
  0.000000000000000E+000  0.000000000000000E+000  0.000000000000000E+000        
  0.000000000000000E+000  0.000000000000000E+000  0.000000000000000E+000        
  0.000000000000000E+000  0.000000000000000E+000                                
   1798.00000000000       0.000000000000000E+000  0.000000000000000E+000        
  0.000000000000000E+000  0.000000000000000E+000   1.00000000000000             
  0.000000000000000E+000  0.000000000000000E+000  0.000000000000000E+000        
  0.000000000000000E+000  0.000000000000000E+000  0.000000000000000E+000        
  0.000000000000000E+000  0.000000000000000E+000  0.000000000000000E+000        
  0.000000000000000E+000  0.000000000000000E+000  0.000000000000000E+000        
  0.000000000000000E+000  0.000000000000000E+000  0.000000000000000E+000        
  0.000000000000000E+000  0.000000000000000E+000                                
   648.900000000000       0.000000000000000E+000  0.000000000000000E+000        
  0.000000000000000E+000  0.000000000000000E+000  0.000000000000000E+000        
   1.00000000000000       0.000000000000000E+000  0.000000000000000E+000        
  0.000000000000000E+000  0.000000000000000E+000  0.000000000000000E+000        
  0.000000000000000E+000  0.000000000000000E+000  0.000000000000000E+000        
  0.000000000000000E+000  0.000000000000000E+000  0.000000000000000E+000        
  0.000000000000000E+000  0.000000000000000E+000  0.000000000000000E+000        
  0.000000000000000E+000  0.000000000000000E+000                                
   253.100000000000       0.000000000000000E+000  0.000000000000000E+000        
  0.000000000000000E+000  0.000000000000000E+000  0.000000000000000E+000        
  0.000000000000000E+000   1.00000000000000       0.000000000000000E+000        
  0.000000000000000E+000  0.000000000000000E+000  0.000000000000000E+000        
  0.000000000000000E+000  0.000000000000000E+000  0.000000000000000E+000        
  0.000000000000000E+000  0.000000000000000E+000  0.000000000000000E+000        
  0.000000000000000E+000  0.000000000000000E+000  0.000000000000000E+000        
  0.000000000000000E+000  0.000000000000000E+000                                
   104.900000000000       0.000000000000000E+000  0.000000000000000E+000        
  0.000000000000000E+000  0.000000000000000E+000  0.000000000000000E+000        
  0.000000000000000E+000  0.000000000000000E+000   1.00000000000000             
  0.000000000000000E+000  0.000000000000000E+000  0.000000000000000E+000        
  0.000000000000000E+000  0.000000000000000E+000  0.000000000000000E+000        
  0.000000000000000E+000  0.000000000000000E+000  0.000000000000000E+000        
  0.000000000000000E+000  0.000000000000000E+000  0.000000000000000E+000        
  0.000000000000000E+000  0.000000000000000E+000                                
   45.6500000000000       0.000000000000000E+000  0.000000000000000E+000        
  0.000000000000000E+000  0.000000000000000E+000  0.000000000000000E+000        
  0.000000000000000E+000  0.000000000000000E+000  0.000000000000000E+000        
   1.00000000000000       0.000000000000000E+000  0.000000000000000E+000        
  0.000000000000000E+000  0.000000000000000E+000  0.000000000000000E+000        
  0.000000000000000E+000  0.000000000000000E+000  0.000000000000000E+000        
  0.000000000000000E+000  0.000000000000000E+000  0.000000000000000E+000        
  0.000000000000000E+000  0.000000000000000E+000                                
   20.6200000000000       0.000000000000000E+000  0.000000000000000E+000        
  0.000000000000000E+000  0.000000000000000E+000  0.000000000000000E+000        
  0.000000000000000E+000  0.000000000000000E+000  0.000000000000000E+000        
  0.000000000000000E+000   1.00000000000000       0.000000000000000E+000        
  0.000000000000000E+000  0.000000000000000E+000  0.000000000000000E+000        
  0.000000000000000E+000  0.000000000000000E+000  0.000000000000000E+000        
  0.000000000000000E+000  0.000000000000000E+000  0.000000000000000E+000        
  0.000000000000000E+000  0.000000000000000E+000                                
   9.58700000000000       0.000000000000000E+000  0.000000000000000E+000        
  0.000000000000000E+000  0.000000000000000E+000  0.000000000000000E+000        
  0.000000000000000E+000  0.000000000000000E+000  0.000000000000000E+000        
  0.000000000000000E+000  0.000000000000000E+000   1.00000000000000             
  0.000000000000000E+000  0.000000000000000E+000  0.000000000000000E+000        
  0.000000000000000E+000  0.000000000000000E+000  0.000000000000000E+000        
  0.000000000000000E+000  0.000000000000000E+000  0.000000000000000E+000        
  0.000000000000000E+000  0.000000000000000E+000                                
   4.49300000000000       0.000000000000000E+000  0.000000000000000E+000        
  0.000000000000000E+000  0.000000000000000E+000  0.000000000000000E+000        
  0.000000000000000E+000  0.000000000000000E+000  0.000000000000000E+000        
  0.000000000000000E+000  0.000000000000000E+000  0.000000000000000E+000        
   1.00000000000000       0.000000000000000E+000  0.000000000000000E+000        
  0.000000000000000E+000  0.000000000000000E+000  0.000000000000000E+000        
  0.000000000000000E+000  0.000000000000000E+000  0.000000000000000E+000        
  0.000000000000000E+000  0.000000000000000E+000                                
   1.83700000000000       0.000000000000000E+000  0.000000000000000E+000        
  0.000000000000000E+000  0.000000000000000E+000  0.000000000000000E+000        
  0.000000000000000E+000  0.000000000000000E+000  0.000000000000000E+000        
  0.000000000000000E+000  0.000000000000000E+000  0.000000000000000E+000        
  0.000000000000000E+000   1.00000000000000       0.000000000000000E+000        
  0.000000000000000E+000  0.000000000000000E+000  0.000000000000000E+000        
  0.000000000000000E+000  0.000000000000000E+000  0.000000000000000E+000        
  0.000000000000000E+000  0.000000000000000E+000                                
  0.834900000000000       0.000000000000000E+000  0.000000000000000E+000        
  0.000000000000000E+000  0.000000000000000E+000  0.000000000000000E+000        
  0.000000000000000E+000  0.000000000000000E+000  0.000000000000000E+000        
  0.000000000000000E+000  0.000000000000000E+000  0.000000000000000E+000        
  0.000000000000000E+000  0.000000000000000E+000   1.00000000000000             
  0.000000000000000E+000  0.000000000000000E+000  0.000000000000000E+000        
  0.000000000000000E+000  0.000000000000000E+000  0.000000000000000E+000        
  0.000000000000000E+000  0.000000000000000E+000                                
  0.365800000000000       0.000000000000000E+000  0.000000000000000E+000        
  0.000000000000000E+000  0.000000000000000E+000  0.000000000000000E+000        
  0.000000000000000E+000  0.000000000000000E+000  0.000000000000000E+000        
  0.000000000000000E+000  0.000000000000000E+000  0.000000000000000E+000        
  0.000000000000000E+000  0.000000000000000E+000  0.000000000000000E+000        
   1.00000000000000       0.000000000000000E+000  0.000000000000000E+000        
  0.000000000000000E+000  0.000000000000000E+000  0.000000000000000E+000        
  0.000000000000000E+000  0.000000000000000E+000                                
  0.157000000000000       0.000000000000000E+000  0.000000000000000E+000        
  0.000000000000000E+000  0.000000000000000E+000  0.000000000000000E+000        
  0.000000000000000E+000  0.000000000000000E+000  0.000000000000000E+000        
  0.000000000000000E+000  0.000000000000000E+000  0.000000000000000E+000        
  0.000000000000000E+000  0.000000000000000E+000  0.000000000000000E+000        
  0.000000000000000E+000   1.00000000000000       0.000000000000000E+000        
  0.000000000000000E+000  0.000000000000000E+000  0.000000000000000E+000        
  0.000000000000000E+000  0.000000000000000E+000                                
   317.096000000000       0.000000000000000E+000  0.000000000000000E+000        
  0.000000000000000E+000  0.000000000000000E+000  0.000000000000000E+000        
  0.000000000000000E+000  0.000000000000000E+000  0.000000000000000E+000        
  0.000000000000000E+000  0.000000000000000E+000  0.000000000000000E+000        
  0.000000000000000E+000  0.000000000000000E+000  0.000000000000000E+000        
  0.000000000000000E+000  0.000000000000000E+000   1.00000000000000             
  0.000000000000000E+000  0.000000000000000E+000  0.000000000000000E+000        
  0.000000000000000E+000  0.000000000000000E+000                                
   160.393000000000       0.000000000000000E+000  0.000000000000000E+000        
  0.000000000000000E+000  0.000000000000000E+000  0.000000000000000E+000        
  0.000000000000000E+000  0.000000000000000E+000  0.000000000000000E+000        
  0.000000000000000E+000  0.000000000000000E+000  0.000000000000000E+000        
  0.000000000000000E+000  0.000000000000000E+000  0.000000000000000E+000        
  0.000000000000000E+000  0.000000000000000E+000  0.000000000000000E+000        
   1.00000000000000       0.000000000000000E+000  0.000000000000000E+000        
  0.000000000000000E+000  0.000000000000000E+000                                
   81.1290000000000       0.000000000000000E+000  0.000000000000000E+000        
  0.000000000000000E+000  0.000000000000000E+000  0.000000000000000E+000        
  0.000000000000000E+000  0.000000000000000E+000  0.000000000000000E+000        
  0.000000000000000E+000  0.000000000000000E+000  0.000000000000000E+000        
  0.000000000000000E+000  0.000000000000000E+000  0.000000000000000E+000        
  0.000000000000000E+000  0.000000000000000E+000  0.000000000000000E+000        
  0.000000000000000E+000   1.00000000000000       0.000000000000000E+000        
  0.000000000000000E+000  0.000000000000000E+000                                
   41.0370000000000       0.000000000000000E+000  0.000000000000000E+000        
  0.000000000000000E+000  0.000000000000000E+000  0.000000000000000E+000        
  0.000000000000000E+000  0.000000000000000E+000  0.000000000000000E+000        
  0.000000000000000E+000  0.000000000000000E+000  0.000000000000000E+000        
  0.000000000000000E+000  0.000000000000000E+000  0.000000000000000E+000        
  0.000000000000000E+000  0.000000000000000E+000  0.000000000000000E+000        
  0.000000000000000E+000  0.000000000000000E+000   1.00000000000000             
  0.000000000000000E+000  0.000000000000000E+000                                
   20.7570000000000       0.000000000000000E+000  0.000000000000000E+000        
  0.000000000000000E+000  0.000000000000000E+000  0.000000000000000E+000        
  0.000000000000000E+000  0.000000000000000E+000  0.000000000000000E+000        
  0.000000000000000E+000  0.000000000000000E+000  0.000000000000000E+000        
  0.000000000000000E+000  0.000000000000000E+000  0.000000000000000E+000        
  0.000000000000000E+000  0.000000000000000E+000  0.000000000000000E+000        
  0.000000000000000E+000  0.000000000000000E+000  0.000000000000000E+000        
   1.00000000000000       0.000000000000000E+000                                
  5.935000000000000E-002  0.000000000000000E+000  0.000000000000000E+000        
  0.000000000000000E+000  0.000000000000000E+000  0.000000000000000E+000        
  0.000000000000000E+000  0.000000000000000E+000  0.000000000000000E+000        
  0.000000000000000E+000  0.000000000000000E+000  0.000000000000000E+000        
  0.000000000000000E+000  0.000000000000000E+000  0.000000000000000E+000        
  0.000000000000000E+000  0.000000000000000E+000  0.000000000000000E+000        
  0.000000000000000E+000  0.000000000000000E+000  0.000000000000000E+000        
  0.000000000000000E+000   1.00000000000000                                     
   15   15                                                                      
   525.600000000000        1.00000000000000       0.000000000000000E+000        
  0.000000000000000E+000  0.000000000000000E+000  0.000000000000000E+000        
  0.000000000000000E+000  0.000000000000000E+000  0.000000000000000E+000        
  0.000000000000000E+000  0.000000000000000E+000  0.000000000000000E+000        
  0.000000000000000E+000  0.000000000000000E+000  0.000000000000000E+000        
  0.000000000000000E+000                                                        
   124.600000000000       0.000000000000000E+000   1.00000000000000             
  0.000000000000000E+000  0.000000000000000E+000  0.000000000000000E+000        
  0.000000000000000E+000  0.000000000000000E+000  0.000000000000000E+000        
  0.000000000000000E+000  0.000000000000000E+000  0.000000000000000E+000        
  0.000000000000000E+000  0.000000000000000E+000  0.000000000000000E+000        
  0.000000000000000E+000                                                        
   40.3400000000000       0.000000000000000E+000  0.000000000000000E+000        
   1.00000000000000       0.000000000000000E+000  0.000000000000000E+000        
  0.000000000000000E+000  0.000000000000000E+000  0.000000000000000E+000        
  0.000000000000000E+000  0.000000000000000E+000  0.000000000000000E+000        
  0.000000000000000E+000  0.000000000000000E+000  0.000000000000000E+000        
  0.000000000000000E+000                                                        
   15.1800000000000       0.000000000000000E+000  0.000000000000000E+000        
  0.000000000000000E+000   1.00000000000000       0.000000000000000E+000        
  0.000000000000000E+000  0.000000000000000E+000  0.000000000000000E+000        
  0.000000000000000E+000  0.000000000000000E+000  0.000000000000000E+000        
  0.000000000000000E+000  0.000000000000000E+000  0.000000000000000E+000        
  0.000000000000000E+000                                                        
   6.24500000000000       0.000000000000000E+000  0.000000000000000E+000        
  0.000000000000000E+000  0.000000000000000E+000   1.00000000000000             
  0.000000000000000E+000  0.000000000000000E+000  0.000000000000000E+000        
  0.000000000000000E+000  0.000000000000000E+000  0.000000000000000E+000        
  0.000000000000000E+000  0.000000000000000E+000  0.000000000000000E+000        
  0.000000000000000E+000                                                        
   2.73200000000000       0.000000000000000E+000  0.000000000000000E+000        
  0.000000000000000E+000  0.000000000000000E+000  0.000000000000000E+000        
   1.00000000000000       0.000000000000000E+000  0.000000000000000E+000        
  0.000000000000000E+000  0.000000000000000E+000  0.000000000000000E+000        
  0.000000000000000E+000  0.000000000000000E+000  0.000000000000000E+000        
  0.000000000000000E+000                                                        
   1.22700000000000       0.000000000000000E+000  0.000000000000000E+000        
  0.000000000000000E+000  0.000000000000000E+000  0.000000000000000E+000        
  0.000000000000000E+000   1.00000000000000       0.000000000000000E+000        
  0.000000000000000E+000  0.000000000000000E+000  0.000000000000000E+000        
  0.000000000000000E+000  0.000000000000000E+000  0.000000000000000E+000        
  0.000000000000000E+000                                                        
  0.549200000000000       0.000000000000000E+000  0.000000000000000E+000        
  0.000000000000000E+000  0.000000000000000E+000  0.000000000000000E+000        
  0.000000000000000E+000  0.000000000000000E+000   1.00000000000000             
  0.000000000000000E+000  0.000000000000000E+000  0.000000000000000E+000        
  0.000000000000000E+000  0.000000000000000E+000  0.000000000000000E+000        
  0.000000000000000E+000                                                        
  0.241800000000000       0.000000000000000E+000  0.000000000000000E+000        
  0.000000000000000E+000  0.000000000000000E+000  0.000000000000000E+000        
  0.000000000000000E+000  0.000000000000000E+000  0.000000000000000E+000        
   1.00000000000000       0.000000000000000E+000  0.000000000000000E+000        
  0.000000000000000E+000  0.000000000000000E+000  0.000000000000000E+000        
  0.000000000000000E+000                                                        
  0.102500000000000       0.000000000000000E+000  0.000000000000000E+000        
  0.000000000000000E+000  0.000000000000000E+000  0.000000000000000E+000        
  0.000000000000000E+000  0.000000000000000E+000  0.000000000000000E+000        
  0.000000000000000E+000   1.00000000000000       0.000000000000000E+000        
  0.000000000000000E+000  0.000000000000000E+000  0.000000000000000E+000        
  0.000000000000000E+000                                                        
   358.911000000000       0.000000000000000E+000  0.000000000000000E+000        
  0.000000000000000E+000  0.000000000000000E+000  0.000000000000000E+000        
  0.000000000000000E+000  0.000000000000000E+000  0.000000000000000E+000        
  0.000000000000000E+000  0.000000000000000E+000   1.00000000000000             
  0.000000000000000E+000  0.000000000000000E+000  0.000000000000000E+000        
  0.000000000000000E+000                                                        
   161.818000000000       0.000000000000000E+000  0.000000000000000E+000        
  0.000000000000000E+000  0.000000000000000E+000  0.000000000000000E+000        
  0.000000000000000E+000  0.000000000000000E+000  0.000000000000000E+000        
  0.000000000000000E+000  0.000000000000000E+000  0.000000000000000E+000        
   1.00000000000000       0.000000000000000E+000  0.000000000000000E+000        
  0.000000000000000E+000                                                        
   72.9570000000000       0.000000000000000E+000  0.000000000000000E+000        
  0.000000000000000E+000  0.000000000000000E+000  0.000000000000000E+000        
  0.000000000000000E+000  0.000000000000000E+000  0.000000000000000E+000        
  0.000000000000000E+000  0.000000000000000E+000  0.000000000000000E+000        
  0.000000000000000E+000   1.00000000000000       0.000000000000000E+000        
  0.000000000000000E+000                                                        
   32.8930000000000       0.000000000000000E+000  0.000000000000000E+000        
  0.000000000000000E+000  0.000000000000000E+000  0.000000000000000E+000        
  0.000000000000000E+000  0.000000000000000E+000  0.000000000000000E+000        
  0.000000000000000E+000  0.000000000000000E+000  0.000000000000000E+000        
  0.000000000000000E+000  0.000000000000000E+000   1.00000000000000             
  0.000000000000000E+000                                                        
   14.8300000000000       0.000000000000000E+000  0.000000000000000E+000        
  0.000000000000000E+000  0.000000000000000E+000  0.000000000000000E+000        
  0.000000000000000E+000  0.000000000000000E+000  0.000000000000000E+000        
  0.000000000000000E+000  0.000000000000000E+000  0.000000000000000E+000        
  0.000000000000000E+000  0.000000000000000E+000  0.000000000000000E+000        
   1.00000000000000                                                             
    9    9                                                                      
   8.25300000000000        1.00000000000000       0.000000000000000E+000        
  0.000000000000000E+000  0.000000000000000E+000  0.000000000000000E+000        
  0.000000000000000E+000  0.000000000000000E+000  0.000000000000000E+000        
  0.000000000000000E+000                                                        
   3.59700000000000       0.000000000000000E+000   1.00000000000000             
  0.000000000000000E+000  0.000000000000000E+000  0.000000000000000E+000        
  0.000000000000000E+000  0.000000000000000E+000  0.000000000000000E+000        
  0.000000000000000E+000                                                        
   1.56800000000000       0.000000000000000E+000  0.000000000000000E+000        
   1.00000000000000       0.000000000000000E+000  0.000000000000000E+000        
  0.000000000000000E+000  0.000000000000000E+000  0.000000000000000E+000        
  0.000000000000000E+000                                                        
  0.684000000000000       0.000000000000000E+000  0.000000000000000E+000        
  0.000000000000000E+000   1.00000000000000       0.000000000000000E+000        
  0.000000000000000E+000  0.000000000000000E+000  0.000000000000000E+000        
  0.000000000000000E+000                                                        
  0.298000000000000       0.000000000000000E+000  0.000000000000000E+000        
  0.000000000000000E+000  0.000000000000000E+000   1.00000000000000             
  0.000000000000000E+000  0.000000000000000E+000  0.000000000000000E+000        
  0.000000000000000E+000                                                        
   250.830000000000       0.000000000000000E+000  0.000000000000000E+000        
  0.000000000000000E+000  0.000000000000000E+000  0.000000000000000E+000        
   1.00000000000000       0.000000000000000E+000  0.000000000000000E+000        
  0.000000000000000E+000                                                        
   108.163000000000       0.000000000000000E+000  0.000000000000000E+000        
  0.000000000000000E+000  0.000000000000000E+000  0.000000000000000E+000        
  0.000000000000000E+000   1.00000000000000       0.000000000000000E+000        
  0.000000000000000E+000                                                        
   46.6420000000000       0.000000000000000E+000  0.000000000000000E+000        
  0.000000000000000E+000  0.000000000000000E+000  0.000000000000000E+000        
  0.000000000000000E+000  0.000000000000000E+000   1.00000000000000             
  0.000000000000000E+000                                                        
   20.1130000000000       0.000000000000000E+000  0.000000000000000E+000        
  0.000000000000000E+000  0.000000000000000E+000  0.000000000000000E+000        
  0.000000000000000E+000  0.000000000000000E+000  0.000000000000000E+000        
   1.00000000000000                                                             
    7    7                                                                      
   5.43000000000000        1.00000000000000       0.000000000000000E+000        
  0.000000000000000E+000  0.000000000000000E+000  0.000000000000000E+000        
  0.000000000000000E+000  0.000000000000000E+000                                
   2.41600000000000       0.000000000000000E+000   1.00000000000000             
  0.000000000000000E+000  0.000000000000000E+000  0.000000000000000E+000        
  0.000000000000000E+000  0.000000000000000E+000                                
   1.07500000000000       0.000000000000000E+000  0.000000000000000E+000        
   1.00000000000000       0.000000000000000E+000  0.000000000000000E+000        
  0.000000000000000E+000  0.000000000000000E+000                                
  0.478000000000000       0.000000000000000E+000  0.000000000000000E+000        
  0.000000000000000E+000   1.00000000000000       0.000000000000000E+000        
  0.000000000000000E+000  0.000000000000000E+000                                
   136.111000000000       0.000000000000000E+000  0.000000000000000E+000        
  0.000000000000000E+000  0.000000000000000E+000   1.00000000000000             
  0.000000000000000E+000  0.000000000000000E+000                                
   48.8550000000000       0.000000000000000E+000  0.000000000000000E+000        
  0.000000000000000E+000  0.000000000000000E+000  0.000000000000000E+000        
   1.00000000000000       0.000000000000000E+000                                
   17.5360000000000       0.000000000000000E+000  0.000000000000000E+000        
  0.000000000000000E+000  0.000000000000000E+000  0.000000000000000E+000        
  0.000000000000000E+000   1.00000000000000                                     
    5    5                                                                      
   5.21100000000000        1.00000000000000       0.000000000000000E+000        
  0.000000000000000E+000  0.000000000000000E+000  0.000000000000000E+000        
   2.19000000000000       0.000000000000000E+000   1.00000000000000             
  0.000000000000000E+000  0.000000000000000E+000  0.000000000000000E+000        
  0.920000000000000       0.000000000000000E+000  0.000000000000000E+000        
   1.00000000000000       0.000000000000000E+000  0.000000000000000E+000        
   81.6280000000000       0.000000000000000E+000  0.000000000000000E+000        
  0.000000000000000E+000   1.00000000000000       0.000000000000000E+000        
   24.0650000000000       0.000000000000000E+000  0.000000000000000E+000        
  0.000000000000000E+000  0.000000000000000E+000   1.00000000000000             
    3    3                                                                      
   3.87200000000000        1.00000000000000       0.000000000000000E+000        
  0.000000000000000E+000                                                        
   1.50500000000000       0.000000000000000E+000   1.00000000000000             
  0.000000000000000E+000                                                        
   62.8500000000000       0.000000000000000E+000  0.000000000000000E+000        
   1.00000000000000                                                             
    1    1                                                                      
   2.77300000000000        1.00000000000000                                     
FINISH                                                                          
 
********************************************************************************
 ONE- AND TWO-ELECTRON INTEGRALS OVER SYMMETRY-ADAPTED AOS ARE CALCULATED.

  SPHERICAL HARMONICS ARE USED.
  
  INTEGRALS LESS THAN  0.10E-13 ARE NEGLECTED.

  NUCLEAR REPULSION ENERGY :    0.0000000000 A.U.
  @MOLECU-I, ONE ELECTRON INTEGRALS (CPU/WALL):        0.19/       0.05 SECONDS.
  @TWOEL-I,    1328444 INTEGRALS OF SYMMETRY TYPE  I I I I
  @TWOEL-I,   11161414 INTEGRALS OF SYMMETRY TYPE  I J I J
  @TWOEL-I,    6360699 INTEGRALS OF SYMMETRY TYPE  I I J J
  @TWOEL-I,   25343995 INTEGRALS OF SYMMETRY TYPE  I J K L
  @TWOEL-I, TOTAL NUMBER OF 2-E INTEGRALS   44194552.
  @MOLECU-I, TWO ELECTRON INTEGRALS (CPU/WALL):      159.07/      40.18 SECONDS.
 @CHECKOUT-I, Total execution time (CPU/WALL):      159.28/      40.29 seconds.

Running with 4 threads/proc

--executable xvmol finished with status     0 in       40.32 seconds (walltime).
 --invoking executable--
/cvmfs/restricted.computecanada.ca/easybuild/software/2023/x86-64-v4/Compiler/intel2023/cfour/2.1/bin/xvmol2ja
 @GETMEM-I,  Allocated    7629 MB of main memory.
 @CHECKOUT-I, Total execution time (CPU/WALL):        0.12/       0.05 seconds.
--executable xvmol2ja finished with status     0 in        0.08 seconds (walltime).
 --invoking executable--
/cvmfs/restricted.computecanada.ca/easybuild/software/2023/x86-64-v4/Compiler/intel2023/cfour/2.1/bin/xvscf
  There are  252 functions in the AO basis.

  There are 8 irreducible representations.

       Irrep        # of functions
         1                 59
         2                 38
         3                 38
         4                 22
         5                 38
         6                 22
         7                 22
         8                 13


  Parameters for SCF calculation: 
        SCF reference function:  UHF  
  Maximum number of iterations: 9999
     Full symmetry point group: I h 
     Computational point group: D2h 
        Initial density matrix: MOREAD                 
     SCF convergence tolerance: 10**(- 9)
  DIIS convergence acceleration:  ON
          Latest start for DIIS:   5
                     DIIS order:   6

     Alpha population by irrep:   2    1    1    0    1    0    0    0
      Beta population by irrep:   2    1    0    0    0    0    0    0


  Memory information:    4036534 words required.
  Fock matrices are constructed from AO integral file.
 @GETMEM-I,  Allocated      30 MB of main memory.
  Initialization and symmetry analysis required      0.002 seconds.

  @DOVRLP-W,   1 linear dependencies found for irrep 1.

      Eigenvalue:         0.0000000004

        0.000000     -0.000001      0.000003     -0.000011      0.000041
       -0.000330     -0.011000     -0.039585     -0.103816      0.693416
       -0.002010      0.000521     -0.000204      0.000114     -0.000056
        0.000022      0.005501      0.017281      0.043972      0.099397
       -0.703251     -0.000005      0.000000     -0.000000      0.000000
       -0.000000     -0.000000      0.000000     -0.000000      0.000000
       -0.000000     -0.000000     -0.000000      0.000000     -0.000000
        0.000000      0.000000     -0.000000      0.000000     -0.000000
       -0.000000      0.000000     -0.000000     -0.000000      0.000000
       -0.000000      0.000000     -0.000000     -0.000000      0.000000
       -0.000000      0.000000     -0.000000     -0.000000      0.000000
       -0.000000     -0.000000     -0.000000     -0.000000      0.000006
       -0.000025      0.000085     -0.000269      0.000990     -0.007262
       -0.194681     -0.460379     -0.534801     -0.114541      0.007343
       -0.002935      0.001380     -0.000820      0.000415     -0.000168
        0.104235      0.255063      0.423347      0.433245      0.089737
        0.000040     -0.000000      0.000000     -0.000000      0.000000
       -0.000000     -0.000000      0.000000     -0.000000      0.000000
        0.000000     -0.000000      0.000000     -0.000000      0.000000
        0.000000     -0.000000      0.000000     -0.000000     -0.000000
        0.000000     -0.000000     -0.000000      0.000000     -0.000000
        0.000000     -0.000000     -0.000000      0.000000     -0.000000
        0.000000     -0.000000     -0.000000      0.000000      0.000000
        0.000000      0.000000      0.000000      0.000028     -0.000125
        0.000422     -0.001302      0.004462     -0.027163     -0.472224
       -0.351692      0.440360      0.066007     -0.018696      0.008610
       -0.004337      0.002643     -0.001354      0.000552      0.291321
        0.407055      0.108355     -0.437369     -0.015427     -0.000132
        0.000000     -0.000000      0.000000     -0.000000      0.000000
        0.000000     -0.000000      0.000000     -0.000000     -0.000000
        0.000000     -0.000000      0.000000     -0.000000      0.000000
       -0.000000      0.000000      0.000000      0.000000     -0.000000
        0.000000      0.000000     -0.000000      0.000000      0.000000
       -0.000000      0.000000     -0.000000     -0.000000      0.000000
       -0.000000      0.000000      0.000000     -0.000000     -0.000000
       -0.000000     -0.000000      0.000112     -0.000498      0.001666
       -0.004971      0.015380     -0.070715     -0.533973      0.438305
       -0.156515     -0.061178      0.045463     -0.023508      0.012559
       -0.007835      0.004060     -0.001665      0.451778      0.052612
       -0.431794      0.303308     -0.032957      0.000398      0.000000
       -0.000000      0.000000     -0.000000      0.000000      0.000000
        0.000000     -0.000000     -0.000000     -0.000000      0.000000
       -0.000000      0.000000     -0.000000     -0.000000      0.000000
       -0.000000      0.000000      0.000000     -0.000000      0.000000
        0.000000     -0.000000      0.000000      0.000000     -0.000000
        0.000000     -0.000000      0.000000     -0.000000      0.000000
       -0.000000      0.000000      0.000000      0.000000      0.000000
        0.000000      0.000510     -0.002248      0.007397     -0.021013
        0.056694     -0.177707     -0.073747      0.157147     -0.182254
        0.174625     -0.235855      0.150455     -0.094979      0.065710
       -0.036765      0.015872


  @DOVRLP-I, A total of   1 linear dependencies were found in the basis.
             The dependencies were eliminated from the calculation.
             There will be eigenvalues and eigenvectors of zero.

 total no. of electrons in initial guess :  0.000000000000000E+000
 total no. of electrons in initial guess :  0.000000000000000E+000
  --------------------------------------------------------------------
  Iteration         Total Energy            Largest Density Difference
  --------------------------------------------------------------------
       0             0.000000000000000              0.0000000000D+00
   current occupation vector 
     2  1  1  0  1  0  0  0
     2  1  0  0  0  0  0  0
       1           -66.704925961889359              0.4986443984D+00
   current occupation vector 
     2  1  1  0  1  0  0  0
     2  1  0  0  0  0  0  0
       2           -70.055040398731265              0.1803330769D+01
   current occupation vector 
     2  1  1  0  1  0  0  0
     2  1  0  0  0  0  0  0
       3           -73.794576710898482              0.1800820091D+01
   current occupation vector 
     2  1  1  0  1  0  0  0
     2  1  0  0  0  0  0  0
       4           -74.682567807975332              0.2381965361D+00
   current occupation vector 
     2  1  1  0  1  0  0  0
     2  1  0  0  0  0  0  0
       5           -74.805276607338755              0.7831858701D-01
   current occupation vector 
     2  1  1  0  1  0  0  0
     2  1  0  0  0  0  0  0
       6           -74.818831264025746              0.2265033962D-01
   current occupation vector 
     2  1  1  0  1  0  0  0
     2  1  0  0  0  0  0  0
       7           -74.818948032401451              0.4149149832D-02
   current occupation vector 
     2  1  1  0  1  0  0  0
     2  1  0  0  0  0  0  0
       8           -74.818951045749799              0.4174555509D-03
   current occupation vector 
     2  1  1  0  1  0  0  0
     2  1  0  0  0  0  0  0
       9           -74.818951408174740              0.1153156734D-03
   current occupation vector 
     2  1  1  0  1  0  0  0
     2  1  0  0  0  0  0  0
      10           -74.818951443308521              0.3510174438D-04
   current occupation vector 
     2  1  1  0  1  0  0  0
     2  1  0  0  0  0  0  0
      11           -74.818951447995374              0.1618797339D-04
   current occupation vector 
     2  1  1  0  1  0  0  0
     2  1  0  0  0  0  0  0
      12           -74.818951448219863              0.2326804961D-05
   current occupation vector 
     2  1  1  0  1  0  0  0
     2  1  0  0  0  0  0  0
      13           -74.818951448231104              0.9744168770D-06
   current occupation vector 
     2  1  1  0  1  0  0  0
     2  1  0  0  0  0  0  0
      14           -74.818951448243254              0.2153682917D-06
   current occupation vector 
     2  1  1  0  1  0  0  0
     2  1  0  0  0  0  0  0
      15           -74.818951448195449              0.1405111737D-07
   current occupation vector 
     2  1  1  0  1  0  0  0
     2  1  0  0  0  0  0  0
      16           -74.818951448231502              0.5087163094D-08
   current occupation vector 
     2  1  1  0  1  0  0  0
     2  1  0  0  0  0  0  0
      17           -74.818951448228319              0.3280882493D-08
   current occupation vector 
     2  1  1  0  1  0  0  0
     2  1  0  0  0  0  0  0
      18           -74.818951448227367              0.1371119649D-07
   current occupation vector 
     2  1  1  0  1  0  0  0
     2  1  0  0  0  0  0  0
      19           -74.818951448248043              0.1632701057D-07
   current occupation vector 
     2  1  1  0  1  0  0  0
     2  1  0  0  0  0  0  0
      20           -74.818951448195364              0.2263543107D-07
   current occupation vector 
     2  1  1  0  1  0  0  0
     2  1  0  0  0  0  0  0
      21           -74.818951448221355              0.1970056399D-07
   current occupation vector 
     2  1  1  0  1  0  0  0
     2  1  0  0  0  0  0  0
      22           -74.818951448220773              0.1521226362D-07
   current occupation vector 
     2  1  1  0  1  0  0  0
     2  1  0  0  0  0  0  0
      23           -74.818951448237868              0.1299140910D-07
   current occupation vector 
     2  1  1  0  1  0  0  0
     2  1  0  0  0  0  0  0
      24           -74.818951448223729              0.1016617081D-07
   current occupation vector 
     2  1  1  0  1  0  0  0
     2  1  0  0  0  0  0  0
      25           -74.818951448195662              0.9082561259D-08
   current occupation vector 
     2  1  1  0  1  0  0  0
     2  1  0  0  0  0  0  0
      26           -74.818951448230337              0.1196590303D-07
   current occupation vector 
     2  1  1  0  1  0  0  0
     2  1  0  0  0  0  0  0
      27           -74.818951448225690              0.1613732887D-07
   current occupation vector 
     2  1  1  0  1  0  0  0
     2  1  0  0  0  0  0  0
      28           -74.818951448227153              0.1329798591D-07
   current occupation vector 
     2  1  1  0  1  0  0  0
     2  1  0  0  0  0  0  0
      29           -74.818951448244349              0.1317076717D-07
   current occupation vector 
     2  1  1  0  1  0  0  0
     2  1  0  0  0  0  0  0
      30           -74.818951448195321              0.1801358175D-07
   current occupation vector 
     2  1  1  0  1  0  0  0
     2  1  0  0  0  0  0  0
      31           -74.818951448229981              0.1403654264D-07
   current occupation vector 
     2  1  1  0  1  0  0  0
     2  1  0  0  0  0  0  0
      32           -74.818951448227963              0.1641472203D-07
   current occupation vector 
     2  1  1  0  1  0  0  0
     2  1  0  0  0  0  0  0
      33           -74.818951448227423              0.1758989315D-07
   current occupation vector 
     2  1  1  0  1  0  0  0
     2  1  0  0  0  0  0  0
      34           -74.818951448243254              0.7965830079D-08
   current occupation vector 
     2  1  1  0  1  0  0  0
     2  1  0  0  0  0  0  0
      35           -74.818951448195747              0.1333120042D-07
   current occupation vector 
     2  1  1  0  1  0  0  0
     2  1  0  0  0  0  0  0
      36           -74.818951448232937              0.1926512989D-07
   current occupation vector 
     2  1  1  0  1  0  0  0
     2  1  0  0  0  0  0  0
      37           -74.818951448246210              0.2981348352D-07
   current occupation vector 
     2  1  1  0  1  0  0  0
     2  1  0  0  0  0  0  0
      38           -74.818951448244576              0.1841430382D-07
   current occupation vector 
     2  1  1  0  1  0  0  0
     2  1  0  0  0  0  0  0
      39           -74.818951448223785              0.5027037772D-08
   current occupation vector 
     2  1  1  0  1  0  0  0
     2  1  0  0  0  0  0  0
      40           -74.818951448195264              0.4490255875D-08
   current occupation vector 
     2  1  1  0  1  0  0  0
     2  1  0  0  0  0  0  0
      41           -74.818951448239517              0.7966966364D-08
   current occupation vector 
     2  1  1  0  1  0  0  0
     2  1  0  0  0  0  0  0
      42           -74.818951448232795              0.1063255299D-07
   current occupation vector 
     2  1  1  0  1  0  0  0
     2  1  0  0  0  0  0  0
      43           -74.818951448226727              0.2081955189D-07
   current occupation vector 
     2  1  1  0  1  0  0  0
     2  1  0  0  0  0  0  0
      44           -74.818951448232269              0.2347725872D-07
   current occupation vector 
     2  1  1  0  1  0  0  0
     2  1  0  0  0  0  0  0
      45           -74.818951448195449              0.8843627428D-08
   current occupation vector 
     2  1  1  0  1  0  0  0
     2  1  0  0  0  0  0  0
      46           -74.818951448231246              0.4307658820D-08
   current occupation vector 
     2  1  1  0  1  0  0  0
     2  1  0  0  0  0  0  0
      47           -74.818951448243595              0.9704285535D-08
   current occupation vector 
     2  1  1  0  1  0  0  0
     2  1  0  0  0  0  0  0
      48           -74.818951448239218              0.1931087474D-07
   current occupation vector 
     2  1  1  0  1  0  0  0
     2  1  0  0  0  0  0  0
      49           -74.818951448228219              0.9470129597D-08
   current occupation vector 
     2  1  1  0  1  0  0  0
     2  1  0  0  0  0  0  0
      50           -74.818951448195492              0.1113929243D-07
   current occupation vector 
     2  1  1  0  1  0  0  0
     2  1  0  0  0  0  0  0
      51           -74.818951448233150              0.6497399341D-08
   current occupation vector 
     2  1  1  0  1  0  0  0
     2  1  0  0  0  0  0  0
      52           -74.818951448247105              0.6802711748D-08
   current occupation vector 
     2  1  1  0  1  0  0  0
     2  1  0  0  0  0  0  0
      53           -74.818951448237129              0.7759025228D-08
   current occupation vector 
     2  1  1  0  1  0  0  0
     2  1  0  0  0  0  0  0
      54           -74.818951448248342              0.1304987760D-08
   current occupation vector 
     2  1  1  0  1  0  0  0
     2  1  0  0  0  0  0  0
      55           -74.818951448195293              0.6885642875D-08
   current occupation vector 
     2  1  1  0  1  0  0  0
     2  1  0  0  0  0  0  0
      56           -74.818951448240384              0.6161324742D-08
   current occupation vector 
     2  1  1  0  1  0  0  0
     2  1  0  0  0  0  0  0
      57           -74.818951448232809              0.1881981793D-07
   current occupation vector 
     2  1  1  0  1  0  0  0
     2  1  0  0  0  0  0  0
      58           -74.818951448254580              0.1451800399D-07
   current occupation vector 
     2  1  1  0  1  0  0  0
     2  1  0  0  0  0  0  0
      59           -74.818951448236007              0.3100449213D-08
   current occupation vector 
     2  1  1  0  1  0  0  0
     2  1  0  0  0  0  0  0
      60           -74.818951448195563              0.1720747543D-07
   current occupation vector 
     2  1  1  0  1  0  0  0
     2  1  0  0  0  0  0  0
      61           -74.818951448225349              0.1599365439D-07
   current occupation vector 
     2  1  1  0  1  0  0  0
     2  1  0  0  0  0  0  0
      62           -74.818951448233108              0.9928121492D-08
   current occupation vector 
     2  1  1  0  1  0  0  0
     2  1  0  0  0  0  0  0
      63           -74.818951448244519              0.7565205039D-08
   current occupation vector 
     2  1  1  0  1  0  0  0
     2  1  0  0  0  0  0  0
      64           -74.818951448232937              0.1829794334D-08
   current occupation vector 
     2  1  1  0  1  0  0  0
     2  1  0  0  0  0  0  0
      65           -74.818951448195435              0.1147897759D-07
   current occupation vector 
     2  1  1  0  1  0  0  0
     2  1  0  0  0  0  0  0
      66           -74.818951448239304              0.6706640597D-08
   current occupation vector 
     2  1  1  0  1  0  0  0
     2  1  0  0  0  0  0  0
      67           -74.818951448231232              0.9346860591D-08
   current occupation vector 
     2  1  1  0  1  0  0  0
     2  1  0  0  0  0  0  0
      68           -74.818951448241378              0.8864958281D-08
   current occupation vector 
     2  1  1  0  1  0  0  0
     2  1  0  0  0  0  0  0
      69           -74.818951448231900              0.6561526329D-08
   current occupation vector 
     2  1  1  0  1  0  0  0
     2  1  0  0  0  0  0  0
      70           -74.818951448195762              0.5084714269D-07
   current occupation vector 
     2  1  1  0  1  0  0  0
     2  1  0  0  0  0  0  0
      71           -74.818951448248399              0.5717846084D-07
   current occupation vector 
     2  1  1  0  1  0  0  0
     2  1  0  0  0  0  0  0
      72           -74.818951448237925              0.1381390533D-07
   current occupation vector 
     2  1  1  0  1  0  0  0
     2  1  0  0  0  0  0  0
      73           -74.818951448255930              0.1106592194D-07
   current occupation vector 
     2  1  1  0  1  0  0  0
     2  1  0  0  0  0  0  0
      74           -74.818951448244064              0.5658299010D-08
   current occupation vector 
     2  1  1  0  1  0  0  0
     2  1  0  0  0  0  0  0
      75           -74.818951448195506              0.1586342167D-07
   current occupation vector 
     2  1  1  0  1  0  0  0
     2  1  0  0  0  0  0  0
      76           -74.818951448238934              0.2683303767D-07
   current occupation vector 
     2  1  1  0  1  0  0  0
     2  1  0  0  0  0  0  0
      77           -74.818951448241336              0.9261484080D-08
   current occupation vector 
     2  1  1  0  1  0  0  0
     2  1  0  0  0  0  0  0
      78           -74.818951448236263              0.1009478554D-07
   current occupation vector 
     2  1  1  0  1  0  0  0
     2  1  0  0  0  0  0  0
      79           -74.818951448226471              0.7312726237D-08
   current occupation vector 
     2  1  1  0  1  0  0  0
     2  1  0  0  0  0  0  0
      80           -74.818951448195421              0.1631393143D-07
   current occupation vector 
     2  1  1  0  1  0  0  0
     2  1  0  0  0  0  0  0
      81           -74.818951448233946              0.3800713233D-07
   current occupation vector 
     2  1  1  0  1  0  0  0
     2  1  0  0  0  0  0  0
      82           -74.818951448227892              0.1708430640D-07
   current occupation vector 
     2  1  1  0  1  0  0  0
     2  1  0  0  0  0  0  0
      83           -74.818951448237414              0.1057859896D-07
   current occupation vector 
     2  1  1  0  1  0  0  0
     2  1  0  0  0  0  0  0
      84           -74.818951448247290              0.1332801443D-07
   current occupation vector 
     2  1  1  0  1  0  0  0
     2  1  0  0  0  0  0  0
      85           -74.818951448195804              0.3303737579D-08
   current occupation vector 
     2  1  1  0  1  0  0  0
     2  1  0  0  0  0  0  0
      86           -74.818951448236575              0.3040499456D-08
   current occupation vector 
     2  1  1  0  1  0  0  0
     2  1  0  0  0  0  0  0
      87           -74.818951448212957              0.5499130221D-08
   current occupation vector 
     2  1  1  0  1  0  0  0
     2  1  0  0  0  0  0  0
      88           -74.818951448246352              0.1144383281D-07
   current occupation vector 
     2  1  1  0  1  0  0  0
     2  1  0  0  0  0  0  0
      89           -74.818951448236135              0.2045491478D-07
   current occupation vector 
     2  1  1  0  1  0  0  0
     2  1  0  0  0  0  0  0
      90           -74.818951448195662              0.8543245805D-08
   current occupation vector 
     2  1  1  0  1  0  0  0
     2  1  0  0  0  0  0  0
      91           -74.818951448238536              0.2731945864D-08
   current occupation vector 
     2  1  1  0  1  0  0  0
     2  1  0  0  0  0  0  0
      92           -74.818951448227011              0.7469641183D-08
   current occupation vector 
     2  1  1  0  1  0  0  0
     2  1  0  0  0  0  0  0
      93           -74.818951448240327              0.1323207525D-07
   current occupation vector 
     2  1  1  0  1  0  0  0
     2  1  0  0  0  0  0  0
      94           -74.818951448238835              0.1997016516D-07
   current occupation vector 
     2  1  1  0  1  0  0  0
     2  1  0  0  0  0  0  0
      95           -74.818951448195449              0.6322162419D-08
   current occupation vector 
     2  1  1  0  1  0  0  0
     2  1  0  0  0  0  0  0
      96           -74.818951448231061              0.9260956238D-08
   current occupation vector 
     2  1  1  0  1  0  0  0
     2  1  0  0  0  0  0  0
      97           -74.818951448232568              0.6780987806D-08
   current occupation vector 
     2  1  1  0  1  0  0  0
     2  1  0  0  0  0  0  0
      98           -74.818951448238835              0.3680227678D-08
   current occupation vector 
     2  1  1  0  1  0  0  0
     2  1  0  0  0  0  0  0
      99           -74.818951448229669              0.1645934847D-08
   current occupation vector 
     2  1  1  0  1  0  0  0
     2  1  0  0  0  0  0  0
     100           -74.818951448195818              0.1593690781D-07
   current occupation vector 
     2  1  1  0  1  0  0  0
     2  1  0  0  0  0  0  0
     101           -74.818951448234486              0.1096111142D-07
   current occupation vector 
     2  1  1  0  1  0  0  0
     2  1  0  0  0  0  0  0
     102           -74.818951448219138              0.1052459624D-07
   current occupation vector 
     2  1  1  0  1  0  0  0
     2  1  0  0  0  0  0  0
     103           -74.818951448244107              0.9242309654D-08
   current occupation vector 
     2  1  1  0  1  0  0  0
     2  1  0  0  0  0  0  0
     104           -74.818951448232966              0.3754961260D-08
   current occupation vector 
     2  1  1  0  1  0  0  0
     2  1  0  0  0  0  0  0
     105           -74.818951448195548              0.3598769883D-08
   current occupation vector 
     2  1  1  0  1  0  0  0
     2  1  0  0  0  0  0  0
     106           -74.818951448222776              0.5480305022D-08
   current occupation vector 
     2  1  1  0  1  0  0  0
     2  1  0  0  0  0  0  0
     107           -74.818951448235225              0.7942528642D-08
   current occupation vector 
     2  1  1  0  1  0  0  0
     2  1  0  0  0  0  0  0
     108           -74.818951448221952              0.1165559831D-07
   current occupation vector 
     2  1  1  0  1  0  0  0
     2  1  0  0  0  0  0  0
     109           -74.818951448225945              0.9051246364D-08
   current occupation vector 
     2  1  1  0  1  0  0  0
     2  1  0  0  0  0  0  0
     110           -74.818951448195790              0.1674027254D-07
   current occupation vector 
     2  1  1  0  1  0  0  0
     2  1  0  0  0  0  0  0
     111           -74.818951448232241              0.6099638468D-08
   current occupation vector 
     2  1  1  0  1  0  0  0
     2  1  0  0  0  0  0  0
     112           -74.818951448247319              0.1484812662D-07
   current occupation vector 
     2  1  1  0  1  0  0  0
     2  1  0  0  0  0  0  0
     113           -74.818951448246949              0.1827367374D-07
   current occupation vector 
     2  1  1  0  1  0  0  0
     2  1  0  0  0  0  0  0
     114           -74.818951448243254              0.1138307976D-07
   current occupation vector 
     2  1  1  0  1  0  0  0
     2  1  0  0  0  0  0  0
     115           -74.818951448195278              0.1022646945D-07
   current occupation vector 
     2  1  1  0  1  0  0  0
     2  1  0  0  0  0  0  0
     116           -74.818951448232298              0.5752578150D-08
   current occupation vector 
     2  1  1  0  1  0  0  0
     2  1  0  0  0  0  0  0
     117           -74.818951448240043              0.7596513418D-08
   current occupation vector 
     2  1  1  0  1  0  0  0
     2  1  0  0  0  0  0  0
     118           -74.818951448239432              0.1741611054D-07
   current occupation vector 
     2  1  1  0  1  0  0  0
     2  1  0  0  0  0  0  0
     119           -74.818951448245684              0.1324539756D-07
   current occupation vector 
     2  1  1  0  1  0  0  0
     2  1  0  0  0  0  0  0
     120           -74.818951448195449              0.9145401714D-08
   current occupation vector 
     2  1  1  0  1  0  0  0
     2  1  0  0  0  0  0  0
     121           -74.818951448241435              0.6751769949D-08
   current occupation vector 
     2  1  1  0  1  0  0  0
     2  1  0  0  0  0  0  0
     122           -74.818951448231047              0.1359147229D-07
   current occupation vector 
     2  1  1  0  1  0  0  0
     2  1  0  0  0  0  0  0
     123           -74.818951448242672              0.4844020372D-08
   current occupation vector 
     2  1  1  0  1  0  0  0
     2  1  0  0  0  0  0  0
     124           -74.818951448236007              0.1497228191D-07
   current occupation vector 
     2  1  1  0  1  0  0  0
     2  1  0  0  0  0  0  0
     125           -74.818951448195889              0.8237611440D-08
   current occupation vector 
     2  1  1  0  1  0  0  0
     2  1  0  0  0  0  0  0
     126           -74.818951448233562              0.1191884623D-07
   current occupation vector 
     2  1  1  0  1  0  0  0
     2  1  0  0  0  0  0  0
     127           -74.818951448241421              0.7783145142D-08
   current occupation vector 
     2  1  1  0  1  0  0  0
     2  1  0  0  0  0  0  0
     128           -74.818951448226557              0.9481987986D-08
   current occupation vector 
     2  1  1  0  1  0  0  0
     2  1  0  0  0  0  0  0
     129           -74.818951448232554              0.1309247942D-07
   current occupation vector 
     2  1  1  0  1  0  0  0
     2  1  0  0  0  0  0  0
     130           -74.818951448195733              0.7184465869D-08
   current occupation vector 
     2  1  1  0  1  0  0  0
     2  1  0  0  0  0  0  0
     131           -74.818951448256314              0.3175688478D-08
   current occupation vector 
     2  1  1  0  1  0  0  0
     2  1  0  0  0  0  0  0
     132           -74.818951448220758              0.3886175806D-08
   current occupation vector 
     2  1  1  0  1  0  0  0
     2  1  0  0  0  0  0  0
     133           -74.818951448233832              0.1260587006D-07
   current occupation vector 
     2  1  1  0  1  0  0  0
     2  1  0  0  0  0  0  0
     134           -74.818951448232497              0.1274154969D-07
   current occupation vector 
     2  1  1  0  1  0  0  0
     2  1  0  0  0  0  0  0
     135           -74.818951448195435              0.1468014219D-07
   current occupation vector 
     2  1  1  0  1  0  0  0
     2  1  0  0  0  0  0  0
     136           -74.818951448246153              0.1262257749D-07
   current occupation vector 
     2  1  1  0  1  0  0  0
     2  1  0  0  0  0  0  0
     137           -74.818951448248939              0.7925394452D-08
   current occupation vector 
     2  1  1  0  1  0  0  0
     2  1  0  0  0  0  0  0
     138           -74.818951448219991              0.4270547187D-08
   current occupation vector 
     2  1  1  0  1  0  0  0
     2  1  0  0  0  0  0  0
     139           -74.818951448236675              0.2097235192D-07
   current occupation vector 
     2  1  1  0  1  0  0  0
     2  1  0  0  0  0  0  0
     140           -74.818951448195193              0.1075396060D-07
   current occupation vector 
     2  1  1  0  1  0  0  0
     2  1  0  0  0  0  0  0
     141           -74.818951448240682              0.1012650901D-07
   current occupation vector 
     2  1  1  0  1  0  0  0
     2  1  0  0  0  0  0  0
     142           -74.818951448236561              0.2050748216D-06
   current occupation vector 
     2  1  1  0  1  0  0  0
     2  1  0  0  0  0  0  0
     143           -74.818951448239162              0.2051376590D-06
   current occupation vector 
     2  1  1  0  1  0  0  0
     2  1  0  0  0  0  0  0
     144           -74.818951448240313              0.9809827020D-08
   current occupation vector 
     2  1  1  0  1  0  0  0
     2  1  0  0  0  0  0  0
     145           -74.818951448195463              0.6394543894D-08
   current occupation vector 
     2  1  1  0  1  0  0  0
     2  1  0  0  0  0  0  0
     146           -74.818951448238948              0.1673064408D-07
   current occupation vector 
     2  1  1  0  1  0  0  0
     2  1  0  0  0  0  0  0
     147           -74.818951448232369              0.9327591595D-08
   current occupation vector 
     2  1  1  0  1  0  0  0
     2  1  0  0  0  0  0  0
     148           -74.818951448254978              0.3144014309D-07
   current occupation vector 
     2  1  1  0  1  0  0  0
     2  1  0  0  0  0  0  0
     149           -74.818951448220304              0.9167378419D-08
   current occupation vector 
     2  1  1  0  1  0  0  0
     2  1  0  0  0  0  0  0
     150           -74.818951448195676              0.6210068057D-08
   current occupation vector 
     2  1  1  0  1  0  0  0
[...]
    8    61           0.2651166555           7.2141909597      Au       B2u (2)
    9    99           0.3277551465           8.9186709523       u       B3u (3)
   10   159           0.3277551465           8.9186709532       u       B1u (5)
   11     5           0.6038689820          16.4321103936      Ag        Ag (1)
   12     6           0.8284894642          22.5443444518      Ag        Ag (1)
   13   136           0.8292487703          22.5650062222       g       B1g (4)
   14   196           0.8292487703          22.5650062226       g       B3g (6)
   15   218           0.8340122724          22.6946277040       g       B2g (7)
   16     7           0.8340122724          22.6946277040       g        Ag (1)
   17    62           1.0458853177          28.4599863726      Au       B2u (2)
   18   100           1.1025815039          30.0027680327       u       B3u (3)
   19   160           1.1025815040          30.0027680338       u       B1u (5)
   20   161           1.8407677731          50.0898376237       u       B1u (5)
   21   101           1.8407677731          50.0898376237       u       B3u (3)
   22    63           1.8500967493          50.3436919729       u       B2u (2)
   23   240           1.8500967493          50.3436919729       u        Au (8)
   24   102           1.8556753593          50.4954936682       u       B3u (3)
   25   162           1.8556753593          50.4954936686       u       B1u (5)
   26    64           1.8575217338          50.5457360724      Au       B2u (2)
   27     8           2.0808256588          56.6221447913      Ag        Ag (1)
   28     9           2.4016316248          65.3517189278      Ag        Ag (1)
   29   137           2.4052867226          65.4511791957       g       B1g (4)
   30   197           2.4052867226          65.4511791960       g       B3g (6)
   31   219           2.4203230580          65.8603386829       g       B2g (7)
   32    10           2.4203230580          65.8603386830       g        Ag (1)
   33    65           2.9122189085          79.2455052651      Au       B2u (2)
   34   103           2.9426537098          80.0736783095       u       B3u (3)
   35   163           2.9426537098          80.0736783117       u       B1u (5)
   36    11           4.5214302145         123.0343710823       g        Ag (1)
   37   220           4.5214302145         123.0343710827       g       B2g (7)
   38   198           4.5368366433         123.4536013231       g       B3g (6)
   39   138           4.5368366433         123.4536013231       g       B1g (4)
   40    12           4.5478383229         123.7529722445       g        Ag (1)
   41   221           4.5478383229         123.7529722447       g       B2g (7)
   42   139           4.5544322828         123.9324030169       g       B1g (4)
   43   199           4.5544322828         123.9324030174       g       B3g (6)
   44    13           4.5566286606         123.9921694946      Ag        Ag (1)
   45   104           5.0422178652         137.2057235159       u       B3u (3)
   46   164           5.0422178652         137.2057235159       u       B1u (5)
   47    66           5.0566186726         137.5975894086       u       B2u (2)
   48   241           5.0566186726         137.5975894086       u        Au (8)
   49   105           5.0651805518         137.8305699851       u       B3u (3)
   50   165           5.0651805518         137.8305699854       u       B1u (5)
   51    67           5.0680223457         137.9078991282      Au       B2u (2)
   52    14           5.8551073733         159.3255715843      Ag        Ag (1)
   53   200           5.8560312033         159.3507102754       g       B3g (6)
   54   140           5.8560312033         159.3507102756       g       B1g (4)
   55   222           5.8576291915         159.3941937436       g       B2g (7)
   56    15           5.8576291915         159.3941937437       g        Ag (1)
   57    16           6.0772445437         165.3702312943      Ag        Ag (1)
   58   166           7.2023429144         195.9857144218       u       B1u (5)
   59   106           7.2023429147         195.9857144304       u       B3u (3)
   60    68           7.2055336621         196.0725390811      Au       B2u (2)
   61   167           9.0583505683         246.4902502861       u       B1u (5)
   62   107           9.0583505683         246.4902502861       u       B3u (3)
   63   242           9.0773005306         247.0059049745                Au (8)
   64    69           9.0773005306         247.0059049745               B2u (2)
   65   168           9.0921101037         247.4088939467       u       B1u (5)
   66   108           9.0921101037         247.4088939467       u       B3u (3)
   67   243           9.1027262325         247.6977734989       u        Au (8)
   68    70           9.1027262325         247.6977734989       u       B2u (2)
   69   109           9.1091110426         247.8715130145       u       B3u (3)
   70   169           9.1091110427         247.8715130149       u       B1u (5)
   71    71           9.1112418331         247.9294947718      Au       B2u (2)
   72   110          11.8866467777         323.4521028089       u       B3u (3)
   73   170          11.8866467777         323.4521028090       u       B1u (5)
   74    72          11.9092612858         324.0674748580       u       B2u (2)
   75   244          11.9092612858         324.0674748580       u        Au (8)
   76   171          11.9228163480         324.4363268544       u       B1u (5)
   77   111          11.9228163481         324.4363268547       u       B3u (3)
   78    73          11.9273327691         324.5592249194      Au       B2u (2)
   79    17          12.3259185482         335.4052953718       g        Ag (1)
   80   223          12.3259185482         335.4052953720       g       B2g (7)
   81   141          12.3496206840         336.0502632767       g       B1g (4)
   82   201          12.3496206840         336.0502632767       g       B3g (6)
   83    18          12.3665505791         336.5109491438       g        Ag (1)
   84   224          12.3665505791         336.5109491439       g       B2g (7)
   85   142          12.3767063652         336.7873021321       g       B1g (4)
   86   202          12.3767063652         336.7873021321       g       B3g (6)
   87    19          12.3800910910         336.8794052045      Ag        Ag (1)
   88   225          13.8011246289         375.5476936273       g       B2g (7)
   89    20          13.8011246289         375.5476936274       g        Ag (1)
   90   203          13.8198849476         376.0581878536       g       B3g (6)
   91   143          13.8198849477         376.0581878546       g       B1g (4)
   92    21          13.8262487970         376.2313569985      Ag        Ag (1)
   93    22          16.6386712143         452.7612616787      Ag        Ag (1)
   94   172          16.8664161461         458.9585163362       u       B1u (5)
   95   112          16.8664161496         458.9585164317       u       B3u (3)
   96    74          16.8968176177         459.7857824349      Au       B2u (2)
   97    23          19.8769762042         540.8800203253    XXXX      XXXX (1)
   98   226          19.8769762042         540.8800203258    XXXX      XXXX (7)
   99   204          19.8991508047         541.4834218816    XXXX      XXXX (6)
  100   144          19.8991508047         541.4834218816    XXXX      XXXX (4)
  101    24          19.9173735701         541.9792885358       g        Ag (1)
  102   227          19.9173735701         541.9792885375       g       B2g (7)
  103   205          19.9315968713         542.3663242404       g       B3g (6)
  104   145          19.9315968713         542.3663242404       g       B1g (4)
  105    25          19.9417833115         542.6435113701       g        Ag (1)
  106   228          19.9417833120         542.6435113825       g       B2g (7)
  107   146          19.9479059905         542.8101179345       g       B1g (4)
  108   206          19.9479059905         542.8101179346       g       B3g (6)
  109    26          19.9499486891         542.8657025887      Ag        Ag (1)
  110   173          25.7953616132         701.9274747977       u       B1u (5)
  111   113          25.7953616132         701.9274747977       u       B3u (3)
  112   245          25.8215151504         702.6391487252                Au (8)
  113    75          25.8215151504         702.6391487252               B2u (2)
  114   174          25.8419300094         703.1946652825       u       B1u (5)
  115   114          25.8419300094         703.1946652825       u       B3u (3)
  116   246          25.8565514607         703.5925351985       u        Au (8)
  117    76          25.8565514607         703.5925351985       u       B2u (2)
  118   175          25.8653401468         703.8316875056       u       B1u (5)
  119   115          25.8653401468         703.8316875062       u       B3u (3)
  120    77          25.8682723498         703.9114768069      Au       B2u (2)
  121   116          27.7763778117         755.8336660970       u       B3u (3)
  122   176          27.7763778117         755.8336660971       u       B1u (5)
  123    78          27.8050240118         756.6131688314       u       B2u (2)
  124   247          27.8050240118         756.6131688314       u        Au (8)
  125   177          27.8222375865         757.0815740115       u       B1u (5)
  126   117          27.8222375865         757.0815740129       u       B3u (3)
  127    79          27.8279797173         757.2378253357      Au       B2u (2)
  128   229          30.9263831117         841.5496680267       g       B2g (7)
  129    27          30.9263831117         841.5496680267       g        Ag (1)
  130   147          30.9545835541         842.3170410772       g       B1g (4)
  131   207          30.9545835541         842.3170410772       g       B3g (6)
  132   230          30.9747721000         842.8663993417       g       B2g (7)
  133    28          30.9747721000         842.8663993417       g        Ag (1)
  134   208          30.9869032968         843.1965059874       g       B3g (6)
  135   148          30.9869032968         843.1965059885       g       B1g (4)
  136    29          30.9909500350         843.3066233334      Ag        Ag (1)
  137   231          32.8462853756         893.7928646210       g       B2g (7)
  138    30          32.8462853756         893.7928646211       g        Ag (1)
  139   209          32.8764917482         894.6148218059       g       B3g (6)
  140   149          32.8764917482         894.6148218076       g       B1g (4)
  141    31          32.8866388451         894.8909383513      Ag        Ag (1)
  142   178          37.0614417102        1008.4930997321       u       B1u (5)
  143   118          37.0614417433        1008.4931006345       u       B3u (3)
  144    80          37.1068693449        1009.7292485184      Au       B2u (2)
  145    32          41.7549492652        1136.2099333042      Ag        Ag (1)
  146   179          74.1396147975        2017.4414833827       u       B1u (5)
  147   119          74.1396149221        2017.4414867738       u       B3u (3)
  148    81          74.1896600060        2018.8032827394      Au       B2u (2)
  149   120          78.3559437754        2132.1736277413       u       B3u (3)
  150   180          78.3559437754        2132.1736277413       u       B1u (5)
  151    82          78.3814559723        2132.8678499124       u       B2u (2)
  152   248          78.3814559723        2132.8678499125       u        Au (8)
  153   181          78.3968432483        2133.2865589782       u       B1u (5)
  154   121          78.3968432483        2133.2865589805       u       B3u (3)
  155    83          78.4019867461        2133.4265206705      Au       B2u (2)
  156    33          80.3797921588        2187.2453420463       g        Ag (1)
  157   232          80.3797921588        2187.2453420464       g       B2g (7)
  158   210          80.4093102518        2188.0485701903       g       B3g (6)
  159   150          80.4093102518        2188.0485701924       g       B1g (4)
  160    34          80.4191619375        2188.3166481891      Ag        Ag (1)
  161    35          92.8090642285        2525.4630297178      Ag        Ag (1)
  162    36         122.9367619092        3345.2793622648       g        Ag (1)
  163   233         122.9367619092        3345.2793622650       g       B2g (7)
  164   151         122.9578347653        3345.8527838335       g       B1g (4)
  165   211         122.9578347653        3345.8527838335       g       B3g (6)
  166    37         122.9729051226        3346.2628691036       g        Ag (1)
  167   234         122.9729051226        3346.2628691038       g       B2g (7)
  168   212         122.9819546614        3346.5091195715       g       B3g (6)
  169   152         122.9819546614        3346.5091195737       g       B1g (4)
  170    38         122.9849723948        3346.5912362735      Ag        Ag (1)
  171   182         136.5504826907        3715.7275379518       u       B1u (5)
  172   122         136.5504829440        3715.7275448455       u       B3u (3)
  173    84         136.5986137969        3717.0372519367      Au       B2u (2)
  174    39         183.4859849651        4992.9074854121      Ag        Ag (1)
  175   235         197.4188779751        5372.0407789781       g       B2g (7)
  176    40         197.4188779751        5372.0407789783       g        Ag (1)
  177   213         197.4408275207        5372.6380564793       g       B3g (6)
  178   153         197.4408275208        5372.6380564810       g       B1g (4)
  179    41         197.4481925177        5372.8384682362      Ag        Ag (1)
  180   183         230.6518067924        6276.3547465299       u       B1u (5)
  181   123         230.6518067924        6276.3547465299       u       B3u (3)
  182    85         230.6686165371        6276.8121629384       u       B2u (2)
  183   249         230.6686165371        6276.8121629385       u        Au (8)
  184   184         230.6787061918        6277.0867164007       u       B1u (5)
  185   124         230.6787061919        6277.0867164025       u       B3u (3)
  186    86         230.6820700909        6277.1782527494      Au       B2u (2)
  187   185         238.1578327037        6480.6040954135       u       B1u (5)
  188   125         238.1578330509        6480.6041048599       u       B3u (3)
  189    87         238.2001886214        6481.7566585288      Au       B2u (2)
  190    42         330.9565531704        9005.7856570611      Ag        Ag (1)
  191   126         385.9144249101       10501.2653758198       u       B3u (3)
  192   186         385.9144249101       10501.2653758199       u       B1u (5)
  193    88         385.9264796497       10501.5934019598               B2u (2)
  194   250         385.9264796497       10501.5934019598                Au (8)
  195   127         385.9358596302       10501.8486442067       u       B3u (3)
  196   187         385.9358596302       10501.8486442067       u       B1u (5)
  197   251         385.9425617972       10502.0310194405       u        Au (8)
  198    89         385.9425617972       10502.0310194405       u       B2u (2)
  199   188         385.9465839694       10502.1404683126       u       B1u (5)
  200   128         385.9465839695       10502.1404683144       u       B3u (3)
  201    90         385.9479248389       10502.1769552261      Au       B2u (2)
  202   189         402.8581828338       10962.3284689170       u       B1u (5)
  203   129         402.8581831431       10962.3284773357       u       B3u (3)
  204    91         402.8926813296       10963.2672207151      Au       B2u (2)
  205    43         451.5393854785       12287.0113384557       g        Ag (1)
  206   236         451.5393854785       12287.0113384561       g       B2g (7)
  207   154         451.5500760026       12287.3022424065       g       B1g (4)
  208   214         451.5500760026       12287.3022424065       g       B3g (6)
  209    44         451.5577155729       12287.5101256833       g        Ag (1)
  210   237         451.5577155729       12287.5101256837       g       B2g (7)
  211   215         451.5623007066       12287.6348935144       g       B3g (6)
  212   155         451.5623007067       12287.6348935157       g       B1g (4)
  213    45         451.5638293164       12287.6764890996      Ag        Ag (1)
  214   238         484.3376662177       13179.4979305113       g       B2g (7)
  215    46         484.3376662177       13179.4979305118       g        Ag (1)
  216   216         484.3509774292       13179.8601469902       g       B3g (6)
  217   156         484.3509774292       13179.8601469913       g       B1g (4)
  218    47         484.3554217083       13179.9810819742      Ag        Ag (1)
  219    48         560.7048442761       15257.5544918339      Ag        Ag (1)
  220   190         675.7749648131       18388.7716596515       u       B1u (5)
  221   130         675.7749650364       18388.7716657280       u       B3u (3)
  222    92         675.8010153393       18389.4805305066      Au       B2u (2)
  223   191         688.5564470878       18736.5734742477       u       B1u (5)
  224   131         688.5564470878       18736.5734742478       u       B3u (3)
  225   252         688.5646497693       18736.7966805598       u        Au (8)
  226    93         688.5646497693       18736.7966805598       u       B2u (2)
  227   192         688.5695749536       18736.9307016374       u       B1u (5)
  228   132         688.5695749537       18736.9307016388       u       B3u (3)
  229    94         688.5712172802       18736.9753916174      Au       B2u (2)
  230    49         914.6065536806       24887.7095923545      Ag        Ag (1)
  231   193        1133.4542903051       30842.8592598669       u       B1u (5)
  232   133        1133.4542905571       30842.8592667235       u       B3u (3)
  233    95        1133.4724516524       30843.3534552507      Au       B2u (2)
  234   239        1222.2729267548       33259.7372293651       g       B2g (7)
  235    50        1222.2729267548       33259.7372293653       g        Ag (1)
  236   217        1222.2793624498       33259.9123535303       g       B3g (6)
  237   157        1222.2793624499       33259.9123535307       g       B1g (4)
  238    51        1222.2815098391       33259.9707869633      Ag        Ag (1)
  239    52        1465.7549577514       39885.2201258232      Ag        Ag (1)
  240   194        1968.2141771280       53557.8305871458       u       B1u (5)
  241   134        1968.2141774537       53557.8305960095       u       B3u (3)
  242    96        1968.2253651279       53558.1350281000      Au       B2u (2)
  243    53        2352.4088380062       64012.2988045356      Ag        Ag (1)
  244   195        3587.3665918130       97617.2077261746       u       B1u (5)
  245   135        3587.3665921531       97617.2077354290       u       B3u (3)
  246    97        3587.3723892798       97617.3654832668      Au       B2u (2)
  247    54        3913.1608043520      106482.5189530746      Ag        Ag (1)
  248    55        7398.2499159362      201316.6149515580      Ag        Ag (1)
  249    56       17521.0501993345      476772.0145447386      Ag        Ag (1)
  250    57       52874.4535436912     1438787.0274428693      Ag        Ag (1)
  251    58      204735.5636703200     5571137.9186481889      Ag        Ag (1)
  252    59     1163997.6084888410    31673985.2012729459      Ag        Ag (1)


  VSCF finished.

 @CHECKOUT-I, Total execution time (CPU/WALL):     4108.02/    1036.91 seconds.
--executable xvscf finished with status     0 in     1036.94 seconds (walltime).
  The final electronic energy is       -74.818951448195548 a.u. 
  This computation required                         1077.55 seconds (walltime).
Program finished with exit code 0 at: Tue 26 Aug 2025 06:15:24 AM EDT
