#INFO: **** input file is /lustre09/project/6004934/jaafar1/PySCF-MRCC/Neon/Cation/AE/dawCV4Z/UHF/input.py ****
import pyscf
from pyscf import cc, lib, tools, scf, symm, ao2mo
from pyscf.gto.basis import parse_gaussian
from pyscf.scf import atom_hf

name = 'out'
mol = pyscf.M(
    atom = '''
        NE
    ''',
    unit = 'angstrom',
    basis = {
            'NE' : parse_gaussian.load('Ne-d-aug-cc-pwCVQZ.gbs', 'NE')
    },
    charge = +1,
    spin = 1,
    symmetry = True,
    verbose = 9,
    symmetry_subgroup = 'D2h',
    output = name +'.txt',
    max_memory = 32000,
)

original_AtomSphAverageRHF = atom_hf.AtomSphAverageRHF

class CustomAtomSphAverageRHF(original_AtomSphAverageRHF):
    def __init__(self, mol):
        super().__init__(mol)
        self.max_cycle = 9999
        self.direct_scf = False

atom_hf.AtomSphAverageRHF = CustomAtomSphAverageRHF

mf = mol.UHF().set(
    conv_tol=1e-13,
    max_cycle=9999,
    ddm_tol=1e-12,
    direct_scf=False,
    chkfile=name + '.chk',
    init_guess='atom',
    irrep_nelec={'Ag': 4, 'B3u': 2, 'B2u': 2, 'B1u': 1}
)

mf.kernel()

atom_hf.AtomSphAverageRHF = original_AtomSphAverageRHF

#pyscf.tools.fcidump.from_chkfile_uhf('FCIdump',name+'.chk',tol=1e-18, float_format='% 0.20E',molpro_orbsym=False,orbsym=None)
pyscf.tools.fcidump.from_scf_uhf(mf,'fort.55',tol=1e-18, float_format='% 0.20E',molpro_orbsym=False)
#MRCCInterface.run_mrcc(mf, fort_file='fort.55', mrcc_input_file='MINP', tol=1e-18, float_format='% 0.20E', molpro_orbsym=False)
#INFO: ******************** input file end ********************


System: uname_result(system='Linux', node='rc32512', release='5.14.0-687.5.4.el9_8.x86_64', version='#1 SMP PREEMPT_DYNAMIC Thu May 28 09:20:26 EDT 2026', machine='x86_64')  Threads 4
Python 3.13.2 (main, Feb  5 2025, 15:06:39) [GCC 13.3.0]
numpy 2.2.2  scipy 1.15.1  h5py 3.13.0
Date: Mon Jun  8 10:00:20 2026
PySCF version 2.10.0
PySCF path  /home/jaafar1/links/projects/rrg-tzeng/jaafar1/VENV/MRCCInterface/lib/python3.13/site-packages/pyscf

[CONFIG] ARGPARSE = False
[CONFIG] DEBUG = False
[CONFIG] MAX_MEMORY = 4000
[CONFIG] TMPDIR = /tmp
[CONFIG] UNIT = angstrom
[CONFIG] VERBOSE = 3
[CONFIG] conf_file = None
[INPUT] verbose = 9
[INPUT] max_memory = 32000 
[INPUT] num. atoms = 1
[INPUT] num. electrons = 9
[INPUT] charge = 1
[INPUT] spin (= nelec alpha-beta = 2S) = 1
[INPUT] symmetry True subgroup D2h
[INPUT] Mole.unit = angstrom
[INPUT] Symbol           X                Y                Z      unit          X                Y                Z       unit  Magmom
[INPUT]  1 Ne     0.000000000000   0.000000000000   0.000000000000 AA    0.000000000000   0.000000000000   0.000000000000 Bohr   0.0
[INPUT] ---------------- BASIS SET ---------------- 
[INPUT] l, kappa, [nprim/nctr], expnt,             c_1 c_2 ...
[INPUT] Ne
[INPUT] 0    0    [1    /1   ]  108.87               1
[INPUT] 0    0    [1    /1   ]  42.923               1
[INPUT] 0    0    [12   /2   ]  99920             8.6e-05 -2e-05
                                14960             0.000669 -0.000158
                                3399              0.003518 -0.000824
                                958.9             0.014667 -0.0035
                                311.2             0.050962 -0.012233
                                111.7             0.143744 -0.037017
                                43.32             0.304562 -0.086113
                                17.8              0.400105 -0.158381
                                7.503             0.218644 -0.114288
                                2.337             0.018664 0.298191
                                0.9001            -0.002167 0.585784
                                0.3301            0.000951 0.272467
[INPUT] 0    0    [1    /1   ]  16.923               1
[INPUT] 0    0    [1    /1   ]  2.337                1
[INPUT] 0    0    [1    /1   ]  0.9001               1
[INPUT] 0    0    [1    /1   ]  0.3301               1
[INPUT] 0    0    [1    /1   ]  0.1054               1
[INPUT] 0    0    [1    /1   ]  0.0337               1
[INPUT] 1    0    [1    /1   ]  142.701              1
[INPUT] 1    0    [1    /1   ]  50.291               1
[INPUT] 1    0    [1    /1   ]  17.724               1
[INPUT] 1    0    [1    /1   ]  2.441                1
[INPUT] 1    0    [6    /1   ]  99.68             0.006566
                                23.15             0.045979
                                7.108             0.173419
                                2.441             0.364571
                                0.8339            0.438185
                                0.2662            0.24168
[INPUT] 1    0    [1    /1   ]  0.8339               1
[INPUT] 1    0    [1    /1   ]  0.2662               1
[INPUT] 1    0    [1    /1   ]  0.08178              1
[INPUT] 1    0    [1    /1   ]  0.0251               1
[INPUT] 2    0    [1    /1   ]  61.555               1
[INPUT] 2    0    [1    /1   ]  19.104               1
[INPUT] 2    0    [1    /1   ]  6.471                1
[INPUT] 2    0    [1    /1   ]  2.213                1
[INPUT] 2    0    [1    /1   ]  0.747                1
[INPUT] 2    0    [1    /1   ]  0.273                1
[INPUT] 2    0    [1    /1   ]  0.0998               1
[INPUT] 3    0    [1    /1   ]  20.877               1
[INPUT] 3    0    [1    /1   ]  4.657                1
[INPUT] 3    0    [1    /1   ]  1.524                1
[INPUT] 3    0    [1    /1   ]  0.689                1
[INPUT] 3    0    [1    /1   ]  0.311                1
[INPUT] 4    0    [1    /1   ]  2.983                1
[INPUT] 4    0    [1    /1   ]  1.224                1
[INPUT] 4    0    [1    /1   ]  0.502                1

nuclear repulsion = 0
point group symmetry = SO3, use subgroup D2h
symmetry origin: [0. 0. 0.]
symmetry axis x: [1. 0. 0.]
symmetry axis y: [0. 1. 0.]
symmetry axis z: [0. 0. 1.]
num. orbitals of irrep Ag = 33
num. orbitals of irrep B1g = 13
num. orbitals of irrep B2g = 13
num. orbitals of irrep B3g = 13
num. orbitals of irrep Au = 5
num. orbitals of irrep B1u = 19
num. orbitals of irrep B2u = 19
num. orbitals of irrep B3u = 19
number of shells = 33
number of NR pGTOs = 159
number of NR cGTOs = 134
basis = {'NE': [[0, [108.87, 1.0]], [0, [42.923, 1.0]], [0, [99920.0, 8.6e-05, -2e-05], [14960.0, 0.000669, -0.000158], [3399.0, 0.003518, -0.000824], [958.9, 0.014667, -0.0035], [311.2, 0.050962, -0.012233], [111.7, 0.143744, -0.037017], [43.32, 0.304562, -0.086113], [17.8, 0.400105, -0.158381], [7.503, 0.218644, -0.114288], [2.337, 0.018664, 0.298191], [0.9001, -0.002167, 0.585784], [0.3301, 0.000951, 0.272467]], [0, [16.923, 1.0]], [0, [2.337, 1.0]], [0, [0.9001, 1.0]], [0, [0.3301, 1.0]], [0, [0.1054, 1.0]], [0, [0.0337, 1.0]], [1, [142.701, 1.0]], [1, [50.291, 1.0]], [1, [17.724, 1.0]], [1, [2.441, 1.0]], [1, [99.68, 0.006566], [23.15, 0.045979], [7.108, 0.173419], [2.441, 0.364571], [0.8339, 0.438185], [0.2662, 0.24168]], [1, [0.8339, 1.0]], [1, [0.2662, 1.0]], [1, [0.08178, 1.0]], [1, [0.0251, 1.0]], [2, [61.555, 1.0]], [2, [19.104, 1.0]], [2, [6.471, 1.0]], [2, [2.213, 1.0]], [2, [0.747, 1.0]], [2, [0.273, 1.0]], [2, [0.0998, 1.0]], [3, [20.877, 1.0]], [3, [4.657, 1.0]], [3, [1.524, 1.0]], [3, [0.689, 1.0]], [3, [0.311, 1.0]], [4, [2.983, 1.0]], [4, [1.224, 1.0]], [4, [0.502, 1.0]]]}
ecp = {}
bas 0, expnt(s) = [108.87]
bas 1, expnt(s) = [42.923]
bas 2, expnt(s) = [9.992e+04 1.496e+04 3.399e+03 9.589e+02 3.112e+02 1.117e+02 4.332e+01
 1.780e+01 7.503e+00 2.337e+00 9.001e-01 3.301e-01]
bas 3, expnt(s) = [16.923]
bas 4, expnt(s) = [2.337]
bas 5, expnt(s) = [0.9001]
bas 6, expnt(s) = [0.3301]
bas 7, expnt(s) = [0.1054]
bas 8, expnt(s) = [0.0337]
bas 9, expnt(s) = [142.701]
bas 10, expnt(s) = [50.291]
bas 11, expnt(s) = [17.724]
bas 12, expnt(s) = [2.441]
bas 13, expnt(s) = [99.68   23.15    7.108   2.441   0.8339  0.2662]
bas 14, expnt(s) = [0.8339]
bas 15, expnt(s) = [0.2662]
bas 16, expnt(s) = [0.08178]
bas 17, expnt(s) = [0.0251]
bas 18, expnt(s) = [61.555]
bas 19, expnt(s) = [19.104]
bas 20, expnt(s) = [6.471]
bas 21, expnt(s) = [2.213]
bas 22, expnt(s) = [0.747]
bas 23, expnt(s) = [0.273]
bas 24, expnt(s) = [0.0998]
bas 25, expnt(s) = [20.877]
bas 26, expnt(s) = [4.657]
bas 27, expnt(s) = [1.524]
bas 28, expnt(s) = [0.689]
bas 29, expnt(s) = [0.311]
bas 30, expnt(s) = [2.983]
bas 31, expnt(s) = [1.224]
bas 32, expnt(s) = [0.502]
CPU time:         1.14
arg.atm = [[10 20  1 23  0  0]]
arg.bas = [[  0   0   1   1   0  24  25   0]
 [  0   0   1   1   0  26  27   0]
 [  0   0  12   2   0  28  40   0]
 [  0   0   1   1   0  64  65   0]
 [  0   0   1   1   0  66  67   0]
 [  0   0   1   1   0  68  69   0]
 [  0   0   1   1   0  70  71   0]
 [  0   0   1   1   0  72  73   0]
 [  0   0   1   1   0  74  75   0]
 [  0   1   1   1   0  76  77   0]
 [  0   1   1   1   0  78  79   0]
 [  0   1   1   1   0  80  81   0]
 [  0   1   1   1   0  82  83   0]
 [  0   1   6   1   0  84  90   0]
 [  0   1   1   1   0  96  97   0]
 [  0   1   1   1   0  98  99   0]
 [  0   1   1   1   0 100 101   0]
 [  0   1   1   1   0 102 103   0]
 [  0   2   1   1   0 104 105   0]
 [  0   2   1   1   0 106 107   0]
 [  0   2   1   1   0 108 109   0]
 [  0   2   1   1   0 110 111   0]
 [  0   2   1   1   0 112 113   0]
 [  0   2   1   1   0 114 115   0]
 [  0   2   1   1   0 116 117   0]
 [  0   3   1   1   0 118 119   0]
 [  0   3   1   1   0 120 121   0]
 [  0   3   1   1   0 122 123   0]
 [  0   3   1   1   0 124 125   0]
 [  0   3   1   1   0 126 127   0]
 [  0   4   1   1   0 128 129   0]
 [  0   4   1   1   0 130 131   0]
 [  0   4   1   1   0 132 133   0]]
arg.env = [ 0.00000000e+00  0.00000000e+00  0.00000000e+00  0.00000000e+00
  0.00000000e+00  0.00000000e+00  0.00000000e+00  0.00000000e+00
  0.00000000e+00  0.00000000e+00  0.00000000e+00  0.00000000e+00
  0.00000000e+00  0.00000000e+00  0.00000000e+00  0.00000000e+00
  0.00000000e+00  0.00000000e+00  0.00000000e+00  0.00000000e+00
  0.00000000e+00  0.00000000e+00  0.00000000e+00  0.00000000e+00
  1.08870000e+02  8.51522625e+01  4.29230000e+01  4.23674744e+01
  9.99200000e+04  1.49600000e+04  3.39900000e+03  9.58900000e+02
  3.11200000e+02  1.11700000e+02  4.33200000e+01  1.78000000e+01
  7.50300000e+00  2.33700000e+00  9.00100000e-01  3.30100000e-01
  1.22110416e+00  2.28633442e+00  3.95661825e+00  6.38537228e+00
  9.53984012e+00  1.24779875e+01  1.29929269e+01  8.75999629e+00
  2.50425596e+00  8.91279057e-02 -5.05931738e-03  1.04635632e-03
 -2.83977770e-01 -5.39971468e-01 -9.26735106e-01 -1.52374770e+00
 -2.28995895e+00 -3.21333592e+00 -3.67366952e+00 -3.46763288e+00
 -1.30900671e+00  1.42397904e+00  1.36763626e+00  2.99787198e-01
  1.69230000e+01  2.10801181e+01  2.33700000e+00  4.77539234e+00
  9.00100000e-01  2.33471082e+00  3.30100000e-01  1.10026974e+00
  1.05400000e-01  4.67353482e-01  3.37000000e-02  1.98718111e-01
  1.42701000e+02  1.43885875e+03  5.02910000e+01  3.90703437e+02
  1.77240000e+01  1.06092961e+02  2.44100000e+00  8.90110895e+00
  9.96800000e+01  2.31500000e+01  7.10800000e+00  2.44100000e+00
  8.33900000e-01  2.66200000e-01  6.03316747e+00  6.81134270e+00
  5.87172108e+00  3.24508674e+00  1.01867217e+00  1.34814077e-01
  8.33900000e-01  2.32475323e+00  2.66200000e-01  5.57820482e-01
  8.17800000e-02  1.27583137e-01  2.51000000e-02  2.91458378e-02
  6.15550000e+01  3.52971974e+03  1.91040000e+01  4.55508964e+02
  6.47100000e+00  6.85061144e+01  2.21300000e+00  1.04772392e+01
  7.47000000e-01  1.56617555e+00  2.73000000e-01  2.69038243e-01
  9.98000000e-02  4.62389361e-02  2.08770000e+01  1.83765325e+03
  4.65700000e+00  6.28419130e+01  1.52400000e+00  5.09010261e+00
  6.89000000e-01  8.53107207e-01  3.11000000e-01  1.42469282e-01
  2.98300000e+00  2.65592342e+01  1.22400000e+00  2.29254570e+00
  5.02000000e-01  1.97630662e-01]
ecpbas  = []


******** <class 'pyscf.scf.uhf_symm.SymAdaptedUHF'> ********
method = SymAdaptedUHF
initial guess = atom
damping factor = 0
level_shift factor = 0
DIIS = <class 'pyscf.scf.diis.CDIIS'>
diis_start_cycle = 1
diis_space = 8
diis_damp = 0
SCF conv_tol = 1e-13
SCF conv_tol_grad = None
SCF ddm_tol = 1e-12
SCF max_cycles = 9999
direct_scf = False
chkfile to save SCF result = out.chk
max_memory 32000 MB (current use 123 MB)
number electrons alpha = 5  beta = 4
irrep_nelec {'Ag': 4, 'B3u': 2, 'B2u': 2, 'B1u': 1}
Freeze 9 electrons in irreps ['Ag', 'B3u', 'B2u', 'B1u']
    0 free electrons in irreps B1g B2g B3g Au
cond(S) = 147371.7983184568

WARN: Singularity detected in overlap matrix (condition number = 1.47e+05). SCF may be inaccurate and hard to converge.

Set gradient conv threshold to 3.16228e-07
Spherically averaged atomic HF for {'Ne'}


******** <class '__main__.CustomAtomSphAverageRHF'> ********
method = CustomAtomSphAverageRHF
initial guess = minao
damping factor = 0
level_shift factor = 0
DIIS = <class 'pyscf.scf.diis.CDIIS'>
diis_start_cycle = 1
diis_space = 8
diis_damp = 0
SCF conv_tol = 1e-09
SCF conv_tol_grad = None
SCF ddm_tol = 1e-10
SCF max_cycles = 9999
direct_scf = False
chkfile to save SCF result = /tmp/tmp5fyr16gd
max_memory 32000 MB (current use 125 MB)
atom = Ne
Set gradient conv threshold to 3.16228e-05
Initial guess from minao.
Nelec from initial guess = 9.999770866526019
E1 = -183.60529566981018  E_coul = 55.08000048794192
init E= -128.525295181868
l = 0  e_0 = -32.5559931
l = 0  e_1 = -1.85278079
l = 0  e_2 = 0.0555902776
l = 0  e_3 = 0.341890323
l = 0  e_4 = 1.53479564
l = 0  e_5 = 6.05184597
l = 0  e_6 = 23.1258909
l = 0  e_7 = 79.8702616
l = 0  e_8 = 256.32114
l = 0  e_9 = 1035.92169
l = 1  e_0 = -0.775485909
l = 1  e_1 = 0.0590191285
l = 1  e_2 = 0.278385121
l = 1  e_3 = 1.12628912
l = 1  e_4 = 4.1703052
l = 1  e_5 = 14.0769709
l = 1  e_6 = 44.4140111
l = 1  e_7 = 140.433542
l = 1  e_8 = 450.163775
l = 2  e_0 = 0.316681569
l = 2  e_1 = 1.04665997
l = 2  e_2 = 2.77287267
l = 2  e_3 = 7.39955269
l = 2  e_4 = 21.2556847
l = 2  e_5 = 65.7726658
l = 2  e_6 = 224.382049
l = 3  e_0 = 1.23803473
l = 3  e_1 = 3.43690722
l = 3  e_2 = 8.08933214
l = 3  e_3 = 21.2644865
l = 3  e_4 = 84.8582311
l = 4  e_0 = 2.56788761
l = 4  e_1 = 7.17111165
l = 4  e_2 = 17.9877804
    CPU time for initialize scf      1.20 sec, wall time      0.31 sec
l = 0  e_0 = -32.5559931
l = 0  e_1 = -1.85278079
l = 0  e_2 = 0.0555902776
l = 0  e_3 = 0.341890323
l = 0  e_4 = 1.53479564
l = 0  e_5 = 6.05184597
l = 0  e_6 = 23.1258909
l = 0  e_7 = 79.8702616
l = 0  e_8 = 256.32114
l = 0  e_9 = 1035.92169
l = 1  e_0 = -0.775485909
l = 1  e_1 = 0.0590191285
l = 1  e_2 = 0.278385121
l = 1  e_3 = 1.12628912
l = 1  e_4 = 4.1703052
l = 1  e_5 = 14.0769709
l = 1  e_6 = 44.4140111
l = 1  e_7 = 140.433542
l = 1  e_8 = 450.163775
l = 2  e_0 = 0.316681569
l = 2  e_1 = 1.04665997
l = 2  e_2 = 2.77287267
l = 2  e_3 = 7.39955269
l = 2  e_4 = 21.2556847
l = 2  e_5 = 65.7726658
l = 2  e_6 = 224.382049
l = 3  e_0 = 1.23803473
l = 3  e_1 = 3.43690722
l = 3  e_2 = 8.08933214
l = 3  e_3 = 21.2644865
l = 3  e_4 = 84.8582311
l = 4  e_0 = 2.56788761
l = 4  e_1 = 7.17111165
l = 4  e_2 = 17.9877804
l = 0  occ = 2 + 0
l = 1  occ = 1 + 0
l = 2  occ = 0 + 0
l = 3  occ = 0 + 0
E1 = -182.0595365365018  E_coul = 53.5193836996169
cycle= 1 E= -128.540152836885  delta_E= -0.0149  |g|=    0  |ddm|= 0.266
    CPU time for cycle= 1      0.16 sec, wall time      0.04 sec
diis-norm(errvec)=0.293056
diis-c [-0.08588158  1.        ]
l = 0  e_0 = -32.8836766
l = 0  e_1 = -1.96929776
l = 0  e_2 = 0.054443619
l = 0  e_3 = 0.333285589
l = 0  e_4 = 1.49814678
l = 0  e_5 = 5.94545605
l = 0  e_6 = 22.9154888
l = 0  e_7 = 79.5795324
l = 0  e_8 = 255.979163
l = 0  e_9 = 1035.53364
l = 1  e_0 = -0.886720455
l = 1  e_1 = 0.0588140464
l = 1  e_2 = 0.274402932
l = 1  e_3 = 1.09687022
l = 1  e_4 = 4.07368401
l = 1  e_5 = 13.8917723
l = 1  e_6 = 44.1498062
l = 1  e_7 = 140.11222
l = 1  e_8 = 449.801703
l = 2  e_0 = 0.315776845
l = 2  e_1 = 1.03453786
l = 2  e_2 = 2.72646121
l = 2  e_3 = 7.2900562
l = 2  e_4 = 21.0579692
l = 2  e_5 = 65.4941219
l = 2  e_6 = 224.048166
l = 3  e_0 = 1.23447886
l = 3  e_1 = 3.41486007
l = 3  e_2 = 8.01952914
l = 3  e_3 = 21.0991346
l = 3  e_4 = 84.5723554
l = 4  e_0 = 2.56183341
l = 4  e_1 = 7.13470076
l = 4  e_2 = 17.8763439
l = 0  occ = 2 + 0
l = 1  occ = 1 + 0
l = 2  occ = 0 + 0
l = 3  occ = 0 + 0
E1 = -182.8399125318614  E_coul = 54.29710646982953
cycle= 2 E= -128.542806062032  delta_E= -0.00265  |g|=    0  |ddm|= 0.113
    CPU time for cycle= 2      0.17 sec, wall time      0.04 sec
diis-norm(errvec)=0.15017
diis-c [-8.20827068e-05  3.38509735e-01  6.61490265e-01]
l = 0  e_0 = -32.773543
l = 0  e_1 = -1.93089688
l = 0  e_2 = 0.054825092
l = 0  e_3 = 0.336012615
l = 0  e_4 = 1.50982727
l = 0  e_5 = 5.9801205
l = 0  e_6 = 22.9857262
l = 0  e_7 = 79.6774956
l = 0  e_8 = 256.092647
l = 0  e_9 = 1035.65563
l = 1  e_0 = -0.850282092
l = 1  e_1 = 0.0588951709
l = 1  e_2 = 0.275750411
l = 1  e_3 = 1.10636741
l = 1  e_4 = 4.1050097
l = 1  e_5 = 13.9531387
l = 1  e_6 = 44.2385012
l = 1  e_7 = 140.219982
l = 1  e_8 = 449.919986
l = 2  e_0 = 0.316057603
l = 2  e_1 = 1.03814651
l = 2  e_2 = 2.74110969
l = 2  e_3 = 7.32551081
l = 2  e_4 = 21.1238093
l = 2  e_5 = 65.5884758
l = 2  e_6 = 224.160499
l = 3  e_0 = 1.23550813
l = 3  e_1 = 3.42141624
l = 3  e_2 = 8.04144581
l = 3  e_3 = 21.1535108
l = 3  e_4 = 84.6694982
l = 4  e_0 = 2.56356136
l = 4  e_1 = 7.14560431
l = 4  e_2 = 17.9119858
l = 0  occ = 2 + 0
l = 1  occ = 1 + 0
l = 2  occ = 0 + 0
l = 3  occ = 0 + 0
E1 = -182.57293313969853  E_coul = 54.02915896176116
cycle= 3 E= -128.543774177937  delta_E= -0.000968  |g|=    0  |ddm|= 0.0398
    CPU time for cycle= 3      0.16 sec, wall time      0.05 sec
diis-norm(errvec)=0.000791785
diis-c [-2.49164363e-07 -9.66298696e-03 -1.49528449e-02  1.02461583e+00]
l = 0  e_0 = -32.7740124
l = 0  e_1 = -1.93112463
l = 0  e_2 = 0.054822301
l = 0  e_3 = 0.33598951
l = 0  e_4 = 1.5097428
l = 0  e_5 = 5.97991185
l = 0  e_6 = 22.9853875
l = 0  e_7 = 79.6770728
l = 0  e_8 = 256.092124
l = 0  e_9 = 1035.65495
l = 1  e_0 = -0.85056748
l = 1  e_1 = 0.0588951675
l = 1  e_2 = 0.27574702
l = 1  e_3 = 1.10630665
l = 1  e_4 = 4.10480924
l = 1  e_5 = 13.9528139
l = 1  e_6 = 44.2381015
l = 1  e_7 = 140.219514
l = 1  e_8 = 449.919409
l = 2  e_0 = 0.316053223
l = 2  e_1 = 1.03809014
l = 2  e_2 = 2.74097611
l = 2  e_3 = 7.32526279
l = 2  e_4 = 21.1234734
l = 2  e_5 = 65.5880759
l = 2  e_6 = 224.160016
l = 3  e_0 = 1.23548899
l = 3  e_1 = 3.42132137
l = 3  e_2 = 8.04124334
l = 3  e_3 = 21.1531951
l = 3  e_4 = 84.6690991
l = 4  e_0 = 2.5635282
l = 4  e_1 = 7.14545738
l = 4  e_2 = 17.9117124
l = 0  occ = 2 + 0
l = 1  occ = 1 + 0
l = 2  occ = 0 + 0
l = 3  occ = 0 + 0
E1 = -182.57321352450447  E_coul = 54.029439313193954
cycle= 4 E= -128.543774211311  delta_E= -3.34e-08  |g|=    0  |ddm|= 0.00088
    CPU time for cycle= 4      0.17 sec, wall time      0.04 sec
diis-norm(errvec)=0.000126147
diis-c [-7.32343515e-10  2.89197553e-04  8.26675460e-04 -1.40874257e-01
  1.13975838e+00]
l = 0  e_0 = -32.7740953
l = 0  e_1 = -1.9311673
l = 0  e_2 = 0.0548212931
l = 0  e_3 = 0.335983317
l = 0  e_4 = 1.5097225
l = 0  e_5 = 5.97986474
l = 0  e_6 = 22.9853166
l = 0  e_7 = 79.6769927
l = 0  e_8 = 256.092039
l = 0  e_9 = 1035.65486
l = 1  e_0 = -0.850616171
l = 1  e_1 = 0.0588950204
l = 1  e_2 = 0.275744426
l = 1  e_3 = 1.10628866
l = 1  e_4 = 4.10476303
l = 1  e_5 = 13.9527459
l = 1  e_6 = 44.2380235
l = 1  e_7 = 140.219431
l = 1  e_8 = 449.919322
l = 2  e_0 = 0.31605199
l = 2  e_1 = 1.03807882
l = 2  e_2 = 2.74094743
l = 2  e_3 = 7.32520906
l = 2  e_4 = 21.1234009
l = 2  e_5 = 65.5879962
l = 2  e_6 = 224.159933
l = 3  e_0 = 1.23548448
l = 3  e_1 = 3.42130155
l = 3  e_2 = 8.04119973
l = 3  e_3 = 21.1531259
l = 3  e_4 = 84.6690187
l = 4  e_0 = 2.5635207
l = 4  e_1 = 7.14542667
l = 4  e_2 = 17.9116527
l = 0  occ = 2 + 0
l = 1  occ = 1 + 0
l = 2  occ = 0 + 0
l = 3  occ = 0 + 0
E1 = -182.573360083355  E_coul = 54.02958587119832
cycle= 5 E= -128.543774212157  delta_E= -8.46e-10  |g|=    0  |ddm|= 0.000103
    CPU time for cycle= 5      0.19 sec, wall time      0.05 sec
diis-norm(errvec)=7.66601e-06
diis-c [-9.09813177e-12  8.49555754e-06 -5.86633454e-05  9.43562245e-03
 -8.96043531e-02  1.08021890e+00]
l = 0  e_0 = -32.7740913
l = 0  e_1 = -1.93116489
l = 0  e_2 = 0.0548212905
l = 0  e_3 = 0.335983476
l = 0  e_4 = 1.50972332
l = 0  e_5 = 5.97986671
l = 0  e_6 = 22.9853199
l = 0  e_7 = 79.6769966
l = 0  e_8 = 256.092043
l = 0  e_9 = 1035.65486
l = 1  e_0 = -0.85061449
l = 1  e_1 = 0.058895022
l = 1  e_2 = 0.275744456
l = 1  e_3 = 1.10628909
l = 1  e_4 = 4.10476459
l = 1  e_5 = 13.9527488
l = 1  e_6 = 44.2380272
l = 1  e_7 = 140.219435
l = 1  e_8 = 449.919326
l = 2  e_0 = 0.316051966
l = 2  e_1 = 1.03807903
l = 2  e_2 = 2.74094827
l = 2  e_3 = 7.32521096
l = 2  e_4 = 21.1234041
l = 2  e_5 = 65.5880002
l = 2  e_6 = 224.159937
l = 3  e_0 = 1.23548447
l = 3  e_1 = 3.42130193
l = 3  e_2 = 8.04120104
l = 3  e_3 = 21.1531288
l = 3  e_4 = 84.6690228
l = 4  e_0 = 2.56352072
l = 4  e_1 = 7.14542736
l = 4  e_2 = 17.9116548
l = 0  occ = 2 + 0
l = 1  occ = 1 + 0
l = 2  occ = 0 + 0
l = 3  occ = 0 + 0
E1 = -182.5733482360531  E_coul = 54.029574023893225
cycle= 6 E= -128.54377421216  delta_E= -3.21e-12  |g|=    0  |ddm|= 3.62e-06
    CPU time for cycle= 6      0.18 sec, wall time      0.05 sec
diis-norm(errvec)=4.53036e-07
diis-c [-1.64262871e-14 -2.46009480e-06  1.21604069e-06  7.16621835e-05
 -8.67509461e-04 -1.22868866e-01  1.12366596e+00]
l = 0  e_0 = -32.7740914
l = 0  e_1 = -1.93116489
l = 0  e_2 = 0.0548212858
l = 0  e_3 = 0.335983469
l = 0  e_4 = 1.50972332
l = 0  e_5 = 5.97986666
l = 0  e_6 = 22.9853198
l = 0  e_7 = 79.6769965
l = 0  e_8 = 256.092043
l = 0  e_9 = 1035.65486
l = 1  e_0 = -0.850614575
l = 1  e_1 = 0.0588950214
l = 1  e_2 = 0.275744448
l = 1  e_3 = 1.10628906
l = 1  e_4 = 4.10476452
l = 1  e_5 = 13.9527487
l = 1  e_6 = 44.2380271
l = 1  e_7 = 140.219435
l = 1  e_8 = 449.919326
l = 2  e_0 = 0.316051959
l = 2  e_1 = 1.03807901
l = 2  e_2 = 2.74094823
l = 2  e_3 = 7.32521089
l = 2  e_4 = 21.123404
l = 2  e_5 = 65.5880001
l = 2  e_6 = 224.159937
l = 3  e_0 = 1.23548445
l = 3  e_1 = 3.42130191
l = 3  e_2 = 8.04120098
l = 3  e_3 = 21.1531287
l = 3  e_4 = 84.6690227
l = 4  e_0 = 2.5635207
l = 4  e_1 = 7.14542732
l = 4  e_2 = 17.9116547
l = 0  occ = 2 + 0
l = 1  occ = 1 + 0
l = 2  occ = 0 + 0
l = 3  occ = 0 + 0
E1 = -182.57334846724282  E_coul = 54.02957425508287
cycle= 7 E= -128.54377421216  delta_E= -5.68e-14  |g|=    0  |ddm|= 3.93e-07
    CPU time for cycle= 7      0.16 sec, wall time      0.04 sec
diis-norm(errvec)=1.37155e-08
Linear dependence found in DIIS error vectors.
diis-c [-3.84866936e-15 -1.08975288e-06  5.93341429e-07  2.40826275e-05
 -2.97461599e-04 -5.53479676e-02  4.93983612e-01  5.61638231e-01]
l = 0  e_0 = -32.7740914
l = 0  e_1 = -1.93116489
l = 0  e_2 = 0.0548212858
l = 0  e_3 = 0.33598347
l = 0  e_4 = 1.50972332
l = 0  e_5 = 5.97986667
l = 0  e_6 = 22.9853198
l = 0  e_7 = 79.6769965
l = 0  e_8 = 256.092043
l = 0  e_9 = 1035.65486
l = 1  e_0 = -0.850614574
l = 1  e_1 = 0.0588950214
l = 1  e_2 = 0.275744448
l = 1  e_3 = 1.10628906
l = 1  e_4 = 4.10476452
l = 1  e_5 = 13.9527487
l = 1  e_6 = 44.2380271
l = 1  e_7 = 140.219435
l = 1  e_8 = 449.919326
l = 2  e_0 = 0.316051959
l = 2  e_1 = 1.03807901
l = 2  e_2 = 2.74094823
l = 2  e_3 = 7.32521089
l = 2  e_4 = 21.123404
l = 2  e_5 = 65.5880001
l = 2  e_6 = 224.159937
l = 3  e_0 = 1.23548445
l = 3  e_1 = 3.42130191
l = 3  e_2 = 8.04120098
l = 3  e_3 = 21.1531287
l = 3  e_4 = 84.6690227
l = 4  e_0 = 2.5635207
l = 4  e_1 = 7.14542732
l = 4  e_2 = 17.9116547
l = 0  occ = 2 + 0
l = 1  occ = 1 + 0
l = 2  occ = 0 + 0
l = 3  occ = 0 + 0
E1 = -182.57334846719493  E_coul = 54.02957425503496
cycle= 8 E= -128.54377421216  delta_E= -2.84e-14  |g|=    0  |ddm|= 3.97e-09
    CPU time for cycle= 8      0.19 sec, wall time      0.05 sec
diis-norm(errvec)=7.03253e-09
Linear dependence found in DIIS error vectors.
diis-c [-1.64964537e-15 -6.98877923e-07  3.96478555e-07  1.32850137e-05
 -1.65880981e-04 -3.57895812e-02  3.16229347e-01  3.59700384e-01
  3.60012748e-01]
l = 0  e_0 = -32.7740914
l = 0  e_1 = -1.93116489
l = 0  e_2 = 0.0548212858
l = 0  e_3 = 0.33598347
l = 0  e_4 = 1.50972332
l = 0  e_5 = 5.97986667
l = 0  e_6 = 22.9853198
l = 0  e_7 = 79.6769965
l = 0  e_8 = 256.092043
l = 0  e_9 = 1035.65486
l = 1  e_0 = -0.850614574
l = 1  e_1 = 0.0588950214
l = 1  e_2 = 0.275744448
l = 1  e_3 = 1.10628906
l = 1  e_4 = 4.10476452
l = 1  e_5 = 13.9527487
l = 1  e_6 = 44.2380271
l = 1  e_7 = 140.219435
l = 1  e_8 = 449.919326
l = 2  e_0 = 0.316051959
l = 2  e_1 = 1.03807901
l = 2  e_2 = 2.74094823
l = 2  e_3 = 7.32521089
l = 2  e_4 = 21.123404
l = 2  e_5 = 65.5880001
l = 2  e_6 = 224.159937
l = 3  e_0 = 1.23548445
l = 3  e_1 = 3.42130191
l = 3  e_2 = 8.04120098
l = 3  e_3 = 21.1531287
l = 3  e_4 = 84.6690227
l = 4  e_0 = 2.5635207
l = 4  e_1 = 7.14542732
l = 4  e_2 = 17.9116547
l = 0  occ = 2 + 0
l = 1  occ = 1 + 0
l = 2  occ = 0 + 0
l = 3  occ = 0 + 0
E1 = -182.57334846696958  E_coul = 54.0295742548096
cycle= 9 E= -128.54377421216  delta_E=    0  |g|=    0  |ddm|= 1.28e-09
    CPU time for cycle= 9      0.19 sec, wall time      0.05 sec
diis-norm(errvec)=4.85467e-09
Linear dependence found in DIIS error vectors.
diis-c [-3.97017876e-17  3.54641254e-01 -1.99271932e-07 -1.40147124e-06
  6.10549694e-05  4.09594068e-03 -4.55642556e-02  3.36476259e-01
  3.50291348e-01]
l = 0  e_0 = -32.7740914
l = 0  e_1 = -1.93116489
l = 0  e_2 = 0.0548212858
l = 0  e_3 = 0.33598347
l = 0  e_4 = 1.50972332
l = 0  e_5 = 5.97986667
l = 0  e_6 = 22.9853198
l = 0  e_7 = 79.6769965
l = 0  e_8 = 256.092043
l = 0  e_9 = 1035.65486
l = 1  e_0 = -0.850614574
l = 1  e_1 = 0.0588950214
l = 1  e_2 = 0.275744448
l = 1  e_3 = 1.10628906
l = 1  e_4 = 4.10476452
l = 1  e_5 = 13.9527487
l = 1  e_6 = 44.2380271
l = 1  e_7 = 140.219435
l = 1  e_8 = 449.919326
l = 2  e_0 = 0.316051959
l = 2  e_1 = 1.03807901
l = 2  e_2 = 2.74094823
l = 2  e_3 = 7.32521089
l = 2  e_4 = 21.123404
l = 2  e_5 = 65.5880001
l = 2  e_6 = 224.159937
l = 3  e_0 = 1.23548445
l = 3  e_1 = 3.42130191
l = 3  e_2 = 8.04120098
l = 3  e_3 = 21.1531287
l = 3  e_4 = 84.6690227
l = 4  e_0 = 2.5635207
l = 4  e_1 = 7.14542732
l = 4  e_2 = 17.9116547
l = 0  occ = 2 + 0
l = 1  occ = 1 + 0
l = 2  occ = 0 + 0
l = 3  occ = 0 + 0
E1 = -182.57334846601782  E_coul = 54.02957425385789
cycle= 10 E= -128.54377421216  delta_E= 5.68e-14  |g|=    0  |ddm|= 2.48e-09
    CPU time for cycle= 10      0.16 sec, wall time      0.04 sec
diis-norm(errvec)=6.64247e-10
Linear dependence found in DIIS error vectors.
diis-c [-6.20119616e-17  2.54431017e-01  2.56969665e-01 -8.68087447e-06
  1.04194762e-04  3.84173347e-04 -1.36358318e-02  2.48666467e-01
  2.53088996e-01]
l = 0  e_0 = -32.7740914
l = 0  e_1 = -1.93116489
l = 0  e_2 = 0.0548212858
l = 0  e_3 = 0.33598347
l = 0  e_4 = 1.50972332
l = 0  e_5 = 5.97986667
l = 0  e_6 = 22.9853198
l = 0  e_7 = 79.6769965
l = 0  e_8 = 256.092043
l = 0  e_9 = 1035.65486
l = 1  e_0 = -0.850614574
l = 1  e_1 = 0.0588950214
l = 1  e_2 = 0.275744448
l = 1  e_3 = 1.10628906
l = 1  e_4 = 4.10476452
l = 1  e_5 = 13.9527487
l = 1  e_6 = 44.2380271
l = 1  e_7 = 140.219435
l = 1  e_8 = 449.919326
l = 2  e_0 = 0.316051959
l = 2  e_1 = 1.03807901
l = 2  e_2 = 2.74094823
l = 2  e_3 = 7.32521089
l = 2  e_4 = 21.123404
l = 2  e_5 = 65.5880001
l = 2  e_6 = 224.159937
l = 3  e_0 = 1.23548445
l = 3  e_1 = 3.42130191
l = 3  e_2 = 8.04120098
l = 3  e_3 = 21.1531287
l = 3  e_4 = 84.6690227
l = 4  e_0 = 2.5635207
l = 4  e_1 = 7.14542732
l = 4  e_2 = 17.9116547
l = 0  occ = 2 + 0
l = 1  occ = 1 + 0
l = 2  occ = 0 + 0
l = 3  occ = 0 + 0
E1 = -182.57334846628066  E_coul = 54.029574254120746
cycle= 11 E= -128.54377421216  delta_E=    0  |g|=    0  |ddm|= 4.16e-11
    CPU time for cycle= 11      0.16 sec, wall time      0.04 sec
l = 0  e_0 = -32.7740914
l = 0  e_1 = -1.93116489
l = 0  e_2 = 0.0548212858
l = 0  e_3 = 0.33598347
l = 0  e_4 = 1.50972332
l = 0  e_5 = 5.97986667
l = 0  e_6 = 22.9853198
l = 0  e_7 = 79.6769965
l = 0  e_8 = 256.092043
l = 0  e_9 = 1035.65486
l = 1  e_0 = -0.850614574
l = 1  e_1 = 0.0588950214
l = 1  e_2 = 0.275744448
l = 1  e_3 = 1.10628906
l = 1  e_4 = 4.10476452
l = 1  e_5 = 13.9527487
l = 1  e_6 = 44.2380271
l = 1  e_7 = 140.219435
l = 1  e_8 = 449.919326
l = 2  e_0 = 0.316051959
l = 2  e_1 = 1.03807901
l = 2  e_2 = 2.74094823
l = 2  e_3 = 7.32521089
l = 2  e_4 = 21.123404
l = 2  e_5 = 65.5880001
l = 2  e_6 = 224.159937
l = 3  e_0 = 1.23548445
l = 3  e_1 = 3.42130191
l = 3  e_2 = 8.04120098
l = 3  e_3 = 21.1531287
l = 3  e_4 = 84.6690227
l = 4  e_0 = 2.5635207
l = 4  e_1 = 7.14542732
l = 4  e_2 = 17.9116547
l = 0  occ = 2 + 0
l = 1  occ = 1 + 0
l = 2  occ = 0 + 0
l = 3  occ = 0 + 0
E1 = -182.5733484656178  E_coul = 54.02957425345793
Extra cycle  E= -128.54377421216  delta_E= 2.84e-14  |g|=    0  |ddm|= 4.16e-11
    CPU time for scf_cycle      3.24 sec, wall time      0.84 sec
    CPU time for SCF      3.24 sec, wall time      0.84 sec
Atomic HF for atom  Ne  converged. SCF energy = -128.54377421216

Atom Ne, E = -128.543774212
Nelec from initial guess = (np.float64(5.0), np.float64(5.0))
E1 = -182.5733484656178  Ecoul = 54.02957425345793
init E= -128.54377421216
    CPU time for initialize scf      4.60 sec, wall time      1.22 sec
alpha HOMO (B2u) = -0.850614573774858  LUMO (Ag) = 0.0548212858170011
alpha irrep_nelec = [2, 0, 0, 0, 0, 1, 1, 1]
beta  irrep_nelec = [2, 0, 0, 0, 0, 0, 1, 1]
alpha-Ag nocc = 2  HOMO = -1.93116488974548  LUMO = 0.0548212858170011
   mo_energy = [-3.27740914e+01 -1.93116489e+00  5.48212858e-02  3.16051959e-01
  3.16051959e-01  3.35983470e-01  1.03807901e+00  1.03807901e+00
  1.50972332e+00  2.56352070e+00  2.56352070e+00  2.56352070e+00
  2.74094823e+00  2.74094823e+00  5.97986667e+00  7.14542732e+00
  7.14542732e+00  7.14542732e+00  7.32521089e+00  7.32521089e+00
  1.79116547e+01  1.79116547e+01  1.79116547e+01  2.11234040e+01
  2.11234040e+01  2.29853198e+01  6.55880001e+01  6.55880001e+01
  7.96769965e+01  2.24159937e+02  2.24159937e+02  2.56092043e+02
  1.03565486e+03]
alpha-B1g nocc = 0
   mo_energy = [  0.31605196   1.03807901   2.5635207    2.5635207    2.74094823
   7.14542732   7.14542732   7.32521089  17.91165474  17.91165474
  21.12340399  65.5880001  224.15993687]
alpha-B2g nocc = 0
   mo_energy = [  0.31605196   1.03807901   2.5635207    2.5635207    2.74094823
   7.14542732   7.14542732   7.32521089  17.91165474  17.91165474
  21.12340399  65.5880001  224.15993687]
alpha-B3g nocc = 0
   mo_energy = [  0.31605196   1.03807901   2.5635207    2.5635207    2.74094823
   7.14542732   7.14542732   7.32521089  17.91165474  17.91165474
  21.12340399  65.5880001  224.15993687]
alpha-Au nocc = 0
   mo_energy = [ 1.23548445  3.42130191  8.04120098 21.15312866 84.66902272]
alpha-B1u nocc = 1  HOMO = -0.850614573774867  LUMO = 0.0588950213661421
   mo_energy = [-8.50614574e-01  5.88950214e-02  2.75744448e-01  1.10628906e+00
  1.23548445e+00  1.23548445e+00  3.42130191e+00  3.42130191e+00
  4.10476452e+00  8.04120098e+00  8.04120098e+00  1.39527487e+01
  2.11531287e+01  2.11531287e+01  4.42380271e+01  8.46690227e+01
  8.46690227e+01  1.40219435e+02  4.49919326e+02]
alpha-B2u nocc = 1  HOMO = -0.850614573774858  LUMO = 0.0588950213661632
   mo_energy = [-8.50614574e-01  5.88950214e-02  2.75744448e-01  1.10628906e+00
  1.23548445e+00  1.23548445e+00  3.42130191e+00  3.42130191e+00
  4.10476452e+00  8.04120098e+00  8.04120098e+00  1.39527487e+01
  2.11531287e+01  2.11531287e+01  4.42380271e+01  8.46690227e+01
  8.46690227e+01  1.40219435e+02  4.49919326e+02]
alpha-B3u nocc = 1  HOMO = -0.850614573774862  LUMO = 0.0588950213661317
   mo_energy = [-8.50614574e-01  5.88950214e-02  2.75744448e-01  1.10628906e+00
  1.23548445e+00  1.23548445e+00  3.42130191e+00  3.42130191e+00
  4.10476452e+00  8.04120098e+00  8.04120098e+00  1.39527487e+01
  2.11531287e+01  2.11531287e+01  4.42380271e+01  8.46690227e+01
  8.46690227e+01  1.40219435e+02  4.49919326e+02]
beta-Ag nocc = 2  HOMO = -1.93116488974548  LUMO = 0.0548212858170011
   mo_energy = [-3.27740914e+01 -1.93116489e+00  5.48212858e-02  3.16051959e-01
  3.16051959e-01  3.35983470e-01  1.03807901e+00  1.03807901e+00
  1.50972332e+00  2.56352070e+00  2.56352070e+00  2.56352070e+00
  2.74094823e+00  2.74094823e+00  5.97986667e+00  7.14542732e+00
  7.14542732e+00  7.14542732e+00  7.32521089e+00  7.32521089e+00
  1.79116547e+01  1.79116547e+01  1.79116547e+01  2.11234040e+01
  2.11234040e+01  2.29853198e+01  6.55880001e+01  6.55880001e+01
  7.96769965e+01  2.24159937e+02  2.24159937e+02  2.56092043e+02
  1.03565486e+03]
beta-B1g nocc = 0
   mo_energy = [  0.31605196   1.03807901   2.5635207    2.5635207    2.74094823
   7.14542732   7.14542732   7.32521089  17.91165474  17.91165474
  21.12340399  65.5880001  224.15993687]
beta-B2g nocc = 0
   mo_energy = [  0.31605196   1.03807901   2.5635207    2.5635207    2.74094823
   7.14542732   7.14542732   7.32521089  17.91165474  17.91165474
  21.12340399  65.5880001  224.15993687]
beta-B3g nocc = 0
   mo_energy = [  0.31605196   1.03807901   2.5635207    2.5635207    2.74094823
   7.14542732   7.14542732   7.32521089  17.91165474  17.91165474
  21.12340399  65.5880001  224.15993687]
beta-Au nocc = 0
   mo_energy = [ 1.23548445  3.42130191  8.04120098 21.15312866 84.66902272]
beta-B1u nocc = 0
   mo_energy = [-8.50614574e-01  5.88950214e-02  2.75744448e-01  1.10628906e+00
  1.23548445e+00  1.23548445e+00  3.42130191e+00  3.42130191e+00
  4.10476452e+00  8.04120098e+00  8.04120098e+00  1.39527487e+01
  2.11531287e+01  2.11531287e+01  4.42380271e+01  8.46690227e+01
  8.46690227e+01  1.40219435e+02  4.49919326e+02]
beta-B2u nocc = 1  HOMO = -0.850614573774858  LUMO = 0.0588950213661632
   mo_energy = [-8.50614574e-01  5.88950214e-02  2.75744448e-01  1.10628906e+00
  1.23548445e+00  1.23548445e+00  3.42130191e+00  3.42130191e+00
  4.10476452e+00  8.04120098e+00  8.04120098e+00  1.39527487e+01
  2.11531287e+01  2.11531287e+01  4.42380271e+01  8.46690227e+01
  8.46690227e+01  1.40219435e+02  4.49919326e+02]
beta-B3u nocc = 1  HOMO = -0.850614573774862  LUMO = 0.0588950213661317
   mo_energy = [-8.50614574e-01  5.88950214e-02  2.75744448e-01  1.10628906e+00
  1.23548445e+00  1.23548445e+00  3.42130191e+00  3.42130191e+00
  4.10476452e+00  8.04120098e+00  8.04120098e+00  1.39527487e+01
  2.11531287e+01  2.11531287e+01  4.42380271e+01  8.46690227e+01
  8.46690227e+01  1.40219435e+02  4.49919326e+02]
multiplicity <S^2> = 0.75  2S+1 = 2
E1 = -172.48565199913972  Ecoul = 44.79249236072089
cycle= 1 E= -127.693159638419  delta_E= 0.851  |g|= 0.69  |ddm|=    1
    CPU time for cycle= 1      0.39 sec, wall time      0.13 sec
diis-norm(errvec)=0.976268
diis-c [-0.95309904  1.        ]
alpha HOMO (B2u) = -1.81091739652109  LUMO (Ag) = -0.184465943986752
alpha irrep_nelec = [2, 0, 0, 0, 0, 1, 1, 1]
beta  irrep_nelec = [2, 0, 0, 0, 0, 0, 1, 1]
alpha-Ag nocc = 2  HOMO = -2.93619625980652  LUMO = -0.184465943986752
   mo_energy = [-3.41911589e+01 -2.93619626e+00 -1.84465944e-01  2.48223932e-02
  6.19128800e-02  6.78974893e-02  6.04288347e-01  6.28906759e-01
  9.63518337e-01  2.05814348e+00  2.11633587e+00  2.12730767e+00
  2.13321922e+00  2.15030603e+00  5.10664347e+00  6.35918099e+00
  6.45566796e+00  6.46498085e+00  6.48053809e+00  6.52763108e+00
  1.69299128e+01  1.69581004e+01  1.70432391e+01  1.99053506e+01
  2.00199707e+01  2.18137426e+01  6.42152759e+01  6.43094696e+01
  7.83426752e+01  2.22728667e+02  2.22780746e+02  2.54689489e+02
  1.03422935e+03]
alpha-B1g nocc = 0
   mo_energy = [6.78974893e-02 6.28906759e-01 2.11633587e+00 2.13321922e+00
 2.15030603e+00 6.45566796e+00 6.48053809e+00 6.52763108e+00
 1.69581004e+01 1.70432391e+01 2.00199707e+01 6.43094696e+01
 2.22780746e+02]
alpha-B2g nocc = 0
   mo_energy = [6.31044688e-02 6.10567767e-01 2.07240967e+00 2.12875223e+00
 2.14011743e+00 6.38268560e+00 6.46886349e+00 6.50007946e+00
 1.69369510e+01 1.69934674e+01 1.99343623e+01 6.42388860e+01
 2.22741703e+02]
alpha-B3g nocc = 0
   mo_energy = [6.31044688e-02 6.10567767e-01 2.07240967e+00 2.12875223e+00
 2.14011743e+00 6.38268560e+00 6.46886349e+00 6.50007946e+00
 1.69369510e+01 1.69934674e+01 1.99343623e+01 6.42388860e+01
 2.22741703e+02]
alpha-Au nocc = 0
   mo_energy = [ 0.87025619  2.87143634  7.25746403 20.07122337 83.32390138]
alpha-B1u nocc = 1  HOMO = -1.92025001751651  LUMO = -0.113762245266499
   mo_energy = [-1.92025002e+00 -1.13762245e-01  1.09724565e-02  5.91147450e-01
  8.63689587e-01  8.70256188e-01  2.85163851e+00  2.87143634e+00
  3.22722012e+00  7.22029482e+00  7.25746403e+00  1.27751345e+01
  2.00162746e+01  2.00712234e+01  4.28865744e+01  8.32775414e+01
  8.33239014e+01  1.38793753e+02  4.48478325e+02]
alpha-B2u nocc = 1  HOMO = -1.81091739652109  LUMO = -0.108945487495906
   mo_energy = [-1.81091740e+00 -1.08945487e-01  1.89250140e-02  6.22593188e-01
  8.65329637e-01  8.78806449e-01  2.85674025e+00  2.89526491e+00
  3.30217059e+00  7.22956689e+00  7.30427320e+00  1.28778433e+01
  2.00299866e+01  2.01403116e+01  4.29817568e+01  8.32891281e+01
  8.33819013e+01  1.38857048e+02  4.48509362e+02]
alpha-B3u nocc = 1  HOMO = -1.8109173965211  LUMO = -0.108945487495915
   mo_energy = [-1.81091740e+00 -1.08945487e-01  1.89250140e-02  6.22593188e-01
  8.65329637e-01  8.78806449e-01  2.85674025e+00  2.89526491e+00
  3.30217059e+00  7.22956689e+00  7.30427320e+00  1.28778433e+01
  2.00299866e+01  2.01403116e+01  4.29817568e+01  8.32891281e+01
  8.33819013e+01  1.38857048e+02  4.48509362e+02]
beta-Ag nocc = 2  HOMO = -2.73333584223684  LUMO = -0.179171391439083
   mo_energy = [-3.41426462e+01 -2.73333584e+00 -1.79171391e-01  3.21999141e-02
  6.51237918e-02  6.82535748e-02  6.32035581e-01  6.33616203e-01
  9.88761899e-01  2.12666976e+00  2.13173539e+00  2.13649037e+00
  2.14515421e+00  2.15083325e+00  5.15290310e+00  6.47091484e+00
  6.47862407e+00  6.49052022e+00  6.49747195e+00  6.53008852e+00
  1.69739847e+01  1.69925662e+01  1.70484342e+01  2.00069743e+01
  2.00345219e+01  2.18534411e+01  6.42672599e+01  6.43178828e+01
  7.83624754e+01  2.22745540e+02  2.22783713e+02  2.54696433e+02
  1.03423110e+03]
beta-B1g nocc = 0
   mo_energy = [6.82535748e-02 6.32035581e-01 2.12666976e+00 2.13649037e+00
 2.15083325e+00 6.47091484e+00 6.49747195e+00 6.53008852e+00
 1.69925662e+01 1.70484342e+01 2.00345219e+01 6.43178828e+01
 2.22783713e+02]
beta-B2g nocc = 0
   mo_energy = [6.58181806e-02 6.33058611e-01 2.13292152e+00 2.13997460e+00
 2.14245029e+00 6.47732553e+00 6.49116074e+00 6.51069325e+00
 1.69786280e+01 1.70158229e+01 2.00137917e+01 6.42799342e+01
 2.22755093e+02]
beta-B3g nocc = 0
   mo_energy = [6.58181806e-02 6.33058611e-01 2.13292152e+00 2.13997460e+00
 2.14245029e+00 6.47732553e+00 6.49116074e+00 6.51069325e+00
 1.69786280e+01 1.70158229e+01 2.00137917e+01 6.42799342e+01
 2.22755093e+02]
beta-Au nocc = 0
   mo_energy = [ 0.87301513  2.88529191  7.28958201 20.11667906 83.35202104]
beta-B1u nocc = 0
   mo_energy = [-8.50614574e-01 -1.06622489e-01  2.67048857e-02  6.63666420e-01
  8.68122410e-01  8.73015127e-01  2.87498310e+00  2.88529191e+00
  3.36499577e+00  7.27258388e+00  7.28958201e+00  1.28953273e+01
  2.00901954e+01  2.01166791e+01  4.29534866e+01  8.33233412e+01
  8.33520210e+01  1.38820634e+02  4.48486155e+02]
beta-B2u nocc = 1  HOMO = -1.75635656389119  LUMO = -0.108281514957076
   mo_energy = [-1.75635656e+00 -1.08281515e-01  2.04892926e-02  6.30829695e-01
  8.69312933e-01  8.79332318e-01  2.87756617e+00  2.89801704e+00
  3.32125160e+00  7.27683097e+00  7.31086844e+00  1.28988797e+01
  2.00968121e+01  2.01498491e+01  4.29957349e+01  8.33305103e+01
  8.33878832e+01  1.38863328e+02  4.48511344e+02]
beta-B3u nocc = 1  HOMO = -1.75635656389117  LUMO = -0.108281514957071
   mo_energy = [-1.75635656e+00 -1.08281515e-01  2.04892926e-02  6.30829695e-01
  8.69312933e-01  8.79332318e-01  2.87756617e+00  2.89801704e+00
  3.32125160e+00  7.27683097e+00  7.31086844e+00  1.28988797e+01
  2.00968121e+01  2.01498491e+01  4.29957349e+01  8.33305103e+01
  8.33878832e+01  1.38863328e+02  4.48511344e+02]
multiplicity <S^2> = 0.75119183  2S+1 = 2.0011915
E1 = -175.8097874756238  Ecoul = 47.99995982055974
cycle= 2 E= -127.809827655064  delta_E= -0.117  |g|= 0.286  |ddm|= 0.268
    CPU time for cycle= 2      0.34 sec, wall time      0.09 sec
diis-norm(errvec)=0.405056
diis-c [-0.04467987  0.26607052  0.73392948]
alpha HOMO (B2u) = -1.62199244928529  LUMO (Ag) = -0.175851791000324
alpha irrep_nelec = [2, 0, 0, 0, 0, 1, 1, 1]
beta  irrep_nelec = [2, 0, 0, 0, 0, 0, 1, 1]
alpha-Ag nocc = 2  HOMO = -2.74842270055827  LUMO = -0.175851791000324
   mo_energy = [-3.36664310e+01 -2.74842270e+00 -1.75851791e-01  3.70786438e-02
  6.53441641e-02  7.02734854e-02  6.28975089e-01  6.50670782e-01
  1.01554372e+00  2.13015843e+00  2.13970200e+00  2.14254419e+00
  2.15799311e+00  2.19062888e+00  5.26899996e+00  6.52184474e+00
  6.52597814e+00  6.53718552e+00  6.58201473e+00  6.62799304e+00
  1.71054662e+01  1.71343238e+01  1.72215599e+01  2.02175244e+01
  2.03413676e+01  2.21516645e+01  6.46644687e+01  6.47674257e+01
  7.88130729e+01  2.23262951e+02  2.23320487e+02  2.55231388e+02
  1.03480885e+03]
alpha-B1g nocc = 0
   mo_energy = [7.02734854e-02 6.50670782e-01 2.14254419e+00 2.15799311e+00
 2.19062888e+00 6.53718552e+00 6.58201473e+00 6.62799304e+00
 1.71343238e+01 1.72215599e+01 2.03413676e+01 6.47674257e+01
 2.23320487e+02]
alpha-B2g nocc = 0
   mo_energy = [6.63025667e-02 6.34437489e-01 2.13742627e+00 2.14783876e+00
 2.14904110e+00 6.52601859e+00 6.55031066e+00 6.55579300e+00
 1.71126706e+01 1.71705486e+01 2.02489334e+01 6.46902824e+01
 2.23277354e+02]
alpha-B3g nocc = 0
   mo_energy = [6.63025667e-02 6.34437489e-01 2.13742627e+00 2.14783876e+00
 2.14904110e+00 6.52601859e+00 6.55031066e+00 6.55579300e+00
 1.71126706e+01 1.71705486e+01 2.02489334e+01 6.46902824e+01
 2.23277354e+02]
alpha-Au nocc = 0
   mo_energy = [ 0.87641167  2.90657685  7.36667406 20.33591618 83.79131631]
alpha-B1u nocc = 1  HOMO = -1.74534121686702  LUMO = -0.11030978920022
   mo_energy = [-1.74534122e+00 -1.10309789e-01  1.81432155e-02  6.30646518e-01
  8.70747853e-01  8.76411671e-01  2.88843603e+00  2.90657685e+00
  3.36659833e+00  7.32931600e+00  7.36667406e+00  1.30629778e+01
  2.02775963e+01  2.03359162e+01  4.33072717e+01  8.37404797e+01
  8.37913163e+01  1.39305546e+02  4.49039633e+02]
alpha-B2u nocc = 1  HOMO = -1.62199244928529  LUMO = -0.106376823216054
   mo_energy = [-1.62199245e+00 -1.06376823e-01  2.54778222e-02  6.62421495e-01
  8.72163620e-01  8.83789553e-01  2.89306665e+00  2.92868327e+00
  3.44644248e+00  7.33863324e+00  7.41375834e+00  1.31734114e+01
  2.02921472e+01  2.04092804e+01  4.34107130e+01  8.37531847e+01
  8.38549249e+01  1.39375059e+02  4.49073929e+02]
alpha-B3u nocc = 1  HOMO = -1.62199244928529  LUMO = -0.106376823216064
   mo_energy = [-1.62199245e+00 -1.06376823e-01  2.54778222e-02  6.62421495e-01
  8.72163620e-01  8.83789553e-01  2.89306665e+00  2.92868327e+00
  3.44644248e+00  7.33863324e+00  7.41375834e+00  1.31734114e+01
  2.02921472e+01  2.04092804e+01  4.34107130e+01  8.37531847e+01
  8.38549249e+01  1.39375059e+02  4.49073929e+02]
beta-Ag nocc = 2  HOMO = -2.53369464587324  LUMO = -0.172177990152283
   mo_energy = [-3.36097497e+01 -2.53369465e+00 -1.72177990e-01  4.33568162e-02
  6.73929904e-02  7.03811090e-02  6.51481425e-01  6.52065481e-01
  1.04147531e+00  2.14070438e+00  2.14503454e+00  2.15808904e+00
  2.19780689e+00  2.21817137e+00  5.32144477e+00  6.54117245e+00
  6.55165740e+00  6.58311143e+00  6.64399475e+00  6.66668212e+00
  1.71534155e+01  1.71714487e+01  1.72256769e+01  2.03368379e+01
  2.03576672e+01  2.21977315e+01  6.47257564e+01  6.47771764e+01
  7.88361689e+01  2.23282853e+02  2.23323919e+02  2.55239399e+02
  1.03481078e+03]
beta-B1g nocc = 0
   mo_energy = [7.03811090e-02 6.52065481e-01 2.14503454e+00 2.15808904e+00
 2.19780689e+00 6.55165740e+00 6.58311143e+00 6.64399475e+00
 1.71714487e+01 1.72256769e+01 2.03576672e+01 6.47771764e+01
 2.23323919e+02]
beta-B2g nocc = 0
   mo_energy = [6.79602207e-02 6.51480700e-01 2.14178595e+00 2.15046202e+00
 2.21236597e+00 6.54378801e+00 6.56482859e+00 6.66029790e+00
 1.71579217e+01 1.71940212e+01 2.03419264e+01 6.47386274e+01
 2.23293130e+02]
beta-B3g nocc = 0
   mo_energy = [6.79602207e-02 6.51480700e-01 2.14178595e+00 2.15046202e+00
 2.21236597e+00 6.54378801e+00 6.56482859e+00 6.66029790e+00
 1.71579217e+01 1.71940212e+01 2.03419264e+01 6.47386274e+01
 2.23293130e+02]
beta-Au nocc = 0
   mo_energy = [ 0.87808464  2.91788072  7.39914997 20.38749448 83.82442766]
beta-B1u nocc = 0
   mo_energy = [-6.44279512e-01 -1.01904525e-01  3.90048537e-02  7.24356092e-01
  8.73638061e-01  8.78084642e-01  2.90814299e+00  2.91788072e+00
  3.53490806e+00  7.38357897e+00  7.39914997e+00  1.32052713e+01
  2.03624029e+01  2.03874945e+01  4.33862582e+01  8.37944781e+01
  8.38244277e+01  1.39337218e+02  4.49048754e+02]
beta-B2u nocc = 1  HOMO = -1.56711322723045  LUMO = -0.105865275904011
   mo_energy = [-1.56711323e+00 -1.05865276e-01  2.68378571e-02  6.70382783e-01
  8.74687668e-01  8.83910774e-01  2.91058335e+00  2.92991054e+00
  3.46667429e+00  7.38746971e+00  7.41864089e+00  1.31967220e+01
  2.03686714e+01  2.04189269e+01  4.34267695e+01  8.38019642e+01
  8.38618840e+01  1.39382306e+02  4.49076124e+02]
beta-B3u nocc = 1  HOMO = -1.56711322723046  LUMO = -0.105865275904043
   mo_energy = [-1.56711323e+00 -1.05865276e-01  2.68378571e-02  6.70382783e-01
  8.74687668e-01  8.83910774e-01  2.91058335e+00  2.92991054e+00
  3.46667429e+00  7.38746971e+00  7.41864089e+00  1.31967220e+01
  2.03686714e+01  2.04189269e+01  4.34267695e+01  8.38019642e+01
  8.38618840e+01  1.39382306e+02  4.49076124e+02]
multiplicity <S^2> = 0.75187209  2S+1 = 2.0018712
E1 = -175.14487545980876  Ecoul = 47.323833678913985
cycle= 3 E= -127.821041780895  delta_E= -0.0112  |g|= 0.0294  |ddm|= 0.0931
    CPU time for cycle= 3      0.35 sec, wall time      0.09 sec
diis-norm(errvec)=0.041619
diis-c [-7.25548144e-04 -2.91067455e-02 -1.27607019e-01  1.15671376e+00]
alpha HOMO (B3u) = -1.60478267603123  LUMO (Ag) = -0.174156242191425
alpha irrep_nelec = [2, 0, 0, 0, 0, 1, 1, 1]
beta  irrep_nelec = [2, 0, 0, 0, 0, 0, 1, 1]
alpha-Ag nocc = 2  HOMO = -2.73270932450047  LUMO = -0.174156242191425
   mo_energy = [-3.36410943e+01 -2.73270932e+00 -1.74156242e-01  3.94440782e-02
  6.62115359e-02  7.09824556e-02  6.34221245e-01  6.55516961e-01
  1.02321736e+00  2.13721471e+00  2.14528548e+00  2.14573738e+00
  2.16056171e+00  2.20203212e+00  5.28668457e+00  6.53334859e+00
  6.54350095e+00  6.54854182e+00  6.59357853e+00  6.64808892e+00
  1.71284344e+01  1.71573991e+01  1.72450826e+01  2.02441925e+01
  2.03686490e+01  2.21780962e+01  6.46932987e+01  6.47952949e+01
  7.88400525e+01  2.23288525e+02  2.23345015e+02  2.55254866e+02
  1.03482732e+03]
alpha-B1g nocc = 0
   mo_energy = [7.09824556e-02 6.55516961e-01 2.14528548e+00 2.16056171e+00
 2.20203212e+00 6.54854182e+00 6.59357853e+00 6.64808892e+00
 1.71573991e+01 1.72450826e+01 2.03686490e+01 6.47952949e+01
 2.23345015e+02]
alpha-B2g nocc = 0
   mo_energy = [6.71374663e-02 6.39539410e-01 2.14076947e+00 2.15170274e+00
 2.15774895e+00 6.53731908e+00 6.56722644e+00 6.56852574e+00
 1.71356637e+01 1.71937869e+01 2.02757247e+01 6.47188491e+01
 2.23302659e+02]
alpha-B3g nocc = 0
   mo_energy = [6.71374663e-02 6.39539410e-01 2.14076947e+00 2.15170274e+00
 2.15774895e+00 6.53731908e+00 6.56722644e+00 6.56852574e+00
 1.71356637e+01 1.71937869e+01 2.02757247e+01 6.47188491e+01
 2.23302659e+02]
alpha-Au nocc = 0
   mo_energy = [ 0.87820366  2.91413262  7.38307447 20.36239018 83.82034438]
alpha-B1u nocc = 1  HOMO = -1.73782892902386  LUMO = -0.109797417878127
   mo_energy = [-1.73782893e+00 -1.09797418e-01  1.92255000e-02  6.35704635e-01
  8.72645327e-01  8.78203657e-01  2.89601018e+00  2.91413262e+00
  3.38064188e+00  7.34530488e+00  7.38307447e+00  1.30863882e+01
  2.03038479e+01  2.03623902e+01  4.33349790e+01  8.37701342e+01
  8.38203444e+01  1.39331957e+02  4.49061722e+02]
alpha-B2u nocc = 1  HOMO = -1.60478267603125  LUMO = -0.10594241928028
   mo_energy = [-1.60478268e+00 -1.05942419e-01  2.65882896e-02  6.68382417e-01
  8.74034660e-01  8.85453041e-01  2.90063429e+00  2.93626797e+00
  3.46293841e+00  7.35471972e+00  7.43076319e+00  1.31982072e+01
  2.03184487e+01  2.04361239e+01  4.34380626e+01  8.37826801e+01
  8.38832077e+01  1.39400467e+02  4.49095296e+02]
alpha-B3u nocc = 1  HOMO = -1.60478267603123  LUMO = -0.105942419280284
   mo_energy = [-1.60478268e+00 -1.05942419e-01  2.65882896e-02  6.68382417e-01
  8.74034660e-01  8.85453041e-01  2.90063429e+00  2.93626797e+00
  3.46293841e+00  7.35471972e+00  7.43076319e+00  1.31982072e+01
  2.03184487e+01  2.04361239e+01  4.34380626e+01  8.37826801e+01
  8.38832077e+01  1.39400467e+02  4.49095296e+02]
beta-Ag nocc = 2  HOMO = -2.50949482545622  LUMO = -0.170913244736364
   mo_energy = [-3.35822475e+01 -2.50949483e+00 -1.70913245e-01  4.53407300e-02
  6.78922309e-02  7.09158091e-02  6.54895100e-01  6.55625669e-01
  1.04982354e+00  2.14290300e+00  2.14723449e+00  2.16029315e+00
  2.20727547e+00  2.23002158e+00  5.34217510e+00  6.55225507e+00
  6.56258996e+00  6.59357672e+00  6.66455599e+00  6.69080859e+00
  1.71785135e+01  1.71960046e+01  1.72485945e+01  2.03679688e+01
  2.03864322e+01  2.22268203e+01  6.47563822e+01  6.48058924e+01
  7.88643855e+01  2.23308988e+02  2.23348788e+02  2.55263384e+02
  1.03482948e+03]
beta-B1g nocc = 0
   mo_energy = [7.09158091e-02 6.55625669e-01 2.14723449e+00 2.16029315e+00
 2.20727547e+00 6.56258996e+00 6.59357672e+00 6.66455599e+00
 1.71960046e+01 1.72485945e+01 2.03864322e+01 6.48058924e+01
 2.23348788e+02]
beta-B2g nocc = 0
   mo_energy = [6.84259160e-02 6.54922460e-01 2.14398491e+00 2.15266359e+00
 2.22358053e+00 6.55483324e+00 6.57557320e+00 6.68354649e+00
 1.71828843e+01 1.72178970e+01 2.03724891e+01 6.47687686e+01
 2.23318943e+02]
beta-B3g nocc = 0
   mo_energy = [6.84259160e-02 6.54922460e-01 2.14398491e+00 2.15266359e+00
 2.22358053e+00 6.55483324e+00 6.57557320e+00 6.68354649e+00
 1.71828843e+01 1.72178970e+01 2.03724891e+01 6.47687686e+01
 2.23318943e+02]
beta-Au nocc = 0
   mo_energy = [ 0.87938553  2.9244683   7.41610627 20.41644823 83.8547496 ]
beta-B1u nocc = 0
   mo_energy = [-6.19406571e-01 -1.01257815e-01  4.07819722e-02  7.32464767e-01
  8.74927411e-01  8.79385527e-01  2.91489983e+00  2.92446830e+00
  3.55402116e+00  7.40138017e+00  7.41610627e+00  1.32332666e+01
  2.03926284e+01  2.04164482e+01  4.34166100e+01  8.38258175e+01
  8.38547496e+01  1.39364644e+02  4.49071222e+02]
beta-B2u nocc = 1  HOMO = -1.54809512257673  LUMO = -0.105462842232375
   mo_energy = [-1.54809512e+00 -1.05462842e-01  2.79018605e-02  6.76394671e-01
  8.75970900e-01  8.85248838e-01  2.91730024e+00  2.93627210e+00
  3.48397866e+00  7.40506418e+00  7.43447500e+00  1.32228979e+01
  2.03985819e+01  2.04462472e+01  4.34552720e+01  8.38330486e+01
  8.38909440e+01  1.39408307e+02  4.49097774e+02]
beta-B3u nocc = 1  HOMO = -1.54809512257668  LUMO = -0.105462842232371
   mo_energy = [-1.54809512e+00 -1.05462842e-01  2.79018605e-02  6.76394671e-01
  8.75970900e-01  8.85248838e-01  2.91730024e+00  2.93627210e+00
  3.48397866e+00  7.40506418e+00  7.43447500e+00  1.32228979e+01
  2.03985819e+01  2.04462472e+01  4.34552720e+01  8.38330486e+01
  8.38909440e+01  1.39408307e+02  4.49097774e+02]
multiplicity <S^2> = 0.75244944  2S+1 = 2.0024479
E1 = -175.1198914679042  Ecoul = 47.298611194800756
cycle= 4 E= -127.821280273103  delta_E= -0.000238  |g|= 0.00545  |ddm|= 0.0243
    CPU time for cycle= 4      0.35 sec, wall time      0.09 sec
diis-norm(errvec)=0.00770972
diis-c [-2.83818018e-05  1.18775376e-03  2.13512623e-02 -2.42047295e-01
  1.21950828e+00]
alpha HOMO (B3u) = -1.60590439245381  LUMO (Ag) = -0.174150310963886
alpha irrep_nelec = [2, 0, 0, 0, 0, 1, 1, 1]
beta  irrep_nelec = [2, 0, 0, 0, 0, 0, 1, 1]
alpha-Ag nocc = 2  HOMO = -2.73422016396057  LUMO = -0.174150310963886
   mo_energy = [-3.36432132e+01 -2.73422016e+00 -1.74150311e-01  3.94341532e-02
  6.62319561e-02  7.10322722e-02  6.34384198e-01  6.55719782e-01
  1.02298387e+00  2.13711510e+00  2.14532506e+00  2.14560978e+00
  2.16071795e+00  2.20204975e+00  5.28568496e+00  6.53320651e+00
  6.54228389e+00  6.54849766e+00  6.59373250e+00  6.64716157e+00
  1.71276202e+01  1.71565716e+01  1.72442974e+01  2.02424319e+01
  2.03667930e+01  2.21763960e+01  6.46917216e+01  6.47933287e+01
  7.88383786e+01  2.23287306e+02  2.23343487e+02  2.55253569e+02
  1.03482650e+03]
alpha-B1g nocc = 0
   mo_energy = [7.10322722e-02 6.55719782e-01 2.14532506e+00 2.16071795e+00
 2.20204975e+00 6.54849766e+00 6.59373250e+00 6.64716157e+00
 1.71565716e+01 1.72442974e+01 2.03667930e+01 6.47933287e+01
 2.23343487e+02]
alpha-B2g nocc = 0
   mo_energy = [6.71631936e-02 6.39698492e-01 2.14076659e+00 2.15178919e+00
 2.15756666e+00 6.53723413e+00 6.56725474e+00 6.56731596e+00
 1.71348449e+01 1.71929616e+01 2.02739162e+01 6.47171614e+01
 2.23301358e+02]
alpha-B3g nocc = 0
   mo_energy = [6.71631936e-02 6.39698492e-01 2.14076659e+00 2.15178919e+00
 2.15756666e+00 6.53723413e+00 6.56725474e+00 6.56731596e+00
 1.71348449e+01 1.71929616e+01 2.02739162e+01 6.47171614e+01
 2.23301358e+02]
alpha-Au nocc = 0
   mo_energy = [ 0.87826094  2.91422972  7.38267753 20.36089367 83.81848952]
alpha-B1u nocc = 1  HOMO = -1.7406974308288  LUMO = -0.109864675533612
   mo_energy = [-1.74069743e+00 -1.09864676e-01  1.90931167e-02  6.35137323e-01
  8.72665688e-01  8.78260938e-01  2.89603123e+00  2.91422972e+00
  3.37931805e+00  7.34483018e+00  7.38267753e+00  1.30847441e+01
  2.03024302e+01  2.03608937e+01  4.33334544e+01  8.37685143e+01
  8.38184895e+01  1.39330682e+02  4.49060756e+02]
alpha-B2u nocc = 1  HOMO = -1.60590439245384  LUMO = -0.105957159461011
   mo_energy = [-1.60590439e+00 -1.05957159e-01  2.65478362e-02  6.68171895e-01
  8.74064205e-01  8.85565165e-01  2.90067357e+00  2.93648294e+00
  3.46217224e+00  7.35426115e+00  7.43051765e+00  1.31967248e+01
  2.03170078e+01  2.04345846e+01  4.34362694e+01  8.37810001e+01
  8.38810810e+01  1.39398864e+02  4.49094135e+02]
alpha-B3u nocc = 1  HOMO = -1.60590439245381  LUMO = -0.105957159461007
   mo_energy = [-1.60590439e+00 -1.05957159e-01  2.65478362e-02  6.68171895e-01
  8.74064205e-01  8.85565165e-01  2.90067357e+00  2.93648294e+00
  3.46217224e+00  7.35426115e+00  7.43051765e+00  1.31967248e+01
  2.03170078e+01  2.04345846e+01  4.34362694e+01  8.37810001e+01
  8.38810810e+01  1.39398864e+02  4.49094135e+02]
beta-Ag nocc = 2  HOMO = -2.50877620054007  LUMO = -0.170916579068599
   mo_energy = [-3.35828696e+01 -2.50877620e+00 -1.70916579e-01  4.53296238e-02
  6.78605562e-02  7.09132577e-02  6.54700378e-01  6.55405951e-01
  1.04984340e+00  2.14280274e+00  2.14716806e+00  2.16033131e+00
  2.20673354e+00  2.22967914e+00  5.34210695e+00  6.55198321e+00
  6.56233971e+00  6.59338609e+00  6.66423721e+00  6.69062727e+00
  1.71780095e+01  1.71954317e+01  1.72478111e+01  2.03674053e+01
  2.03855607e+01  2.22261623e+01  6.47554357e+01  6.48044858e+01
  7.88633528e+01  2.23308043e+02  2.23347523e+02  2.55262453e+02
  1.03482887e+03]
beta-B1g nocc = 0
   mo_energy = [7.09132577e-02 6.55405951e-01 2.14716806e+00 2.16033131e+00
 2.20673354e+00 6.56233971e+00 6.59338609e+00 6.66423721e+00
 1.71954317e+01 1.72478111e+01 2.03855607e+01 6.48044858e+01
 2.23347523e+02]
beta-B2g nocc = 0
   mo_energy = [6.83990676e-02 6.54737167e-01 2.14389307e+00 2.15264014e+00
 2.22325719e+00 6.55456668e+00 6.57535319e+00 6.68340132e+00
 1.71823631e+01 1.72172374e+01 2.03718632e+01 6.47677031e+01
 2.23317915e+02]
beta-B3g nocc = 0
   mo_energy = [6.83990676e-02 6.54737167e-01 2.14389307e+00 2.15264014e+00
 2.22325719e+00 6.55456668e+00 6.57535319e+00 6.68340132e+00
 1.71823631e+01 1.72172374e+01 2.03718632e+01 6.47677031e+01
 2.23317915e+02]
beta-Au nocc = 0
   mo_energy = [ 0.87934622  2.92426267  7.41571931 20.4157056  83.85346756]
beta-B1u nocc = 0
   mo_energy = [-6.19299681e-01 -1.01265240e-01  4.07718719e-02  7.32402114e-01
  8.74850493e-01  8.79346219e-01  2.91466135e+00  2.92426267e+00
  3.55374078e+00  7.40103690e+00  7.41571931e+00  1.32328008e+01
  2.03920636e+01  2.04157056e+01  4.34158885e+01  8.38247907e+01
  8.38534676e+01  1.39363814e+02  4.49070517e+02]
beta-B2u nocc = 1  HOMO = -1.54764334772463  LUMO = -0.105457438987883
   mo_energy = [-1.54764335e+00 -1.05457439e-01  2.79127422e-02  6.76441846e-01
  8.75902478e-01  8.85259459e-01  2.91707182e+00  2.93608508e+00
  3.48384596e+00  7.40471338e+00  7.43398379e+00  1.32222402e+01
  2.03979741e+01  2.04452586e+01  4.34541447e+01  8.38319576e+01
  8.38893488e+01  1.39407116e+02  4.49096869e+02]
beta-B3u nocc = 1  HOMO = -1.54764334772464  LUMO = -0.105457438987899
   mo_energy = [-1.54764335e+00 -1.05457439e-01  2.79127422e-02  6.76441846e-01
  8.75902478e-01  8.85259459e-01  2.91707182e+00  2.93608508e+00
  3.48384596e+00  7.40471338e+00  7.43398379e+00  1.32222402e+01
  2.03979741e+01  2.04452586e+01  4.34541447e+01  8.38319576e+01
  8.38893488e+01  1.39407116e+02  4.49096869e+02]
multiplicity <S^2> = 0.7526198  2S+1 = 2.0026181
E1 = -175.12483629555678  Ecoul = 47.303542488373516
cycle= 5 E= -127.821293807183  delta_E= -1.35e-05  |g|= 0.0014  |ddm|= 0.00374
    CPU time for cycle= 5      0.38 sec, wall time      0.10 sec
diis-norm(errvec)=0.00197313
diis-c [-6.95656514e-07  3.80113046e-04 -4.76351534e-03  6.40117617e-02
 -5.25357716e-01  1.46572936e+00]
alpha HOMO (B2u) = -1.60640759208933  LUMO (Ag) = -0.174158704322332
alpha irrep_nelec = [2, 0, 0, 0, 0, 1, 1, 1]
beta  irrep_nelec = [2, 0, 0, 0, 0, 0, 1, 1]
alpha-Ag nocc = 2  HOMO = -2.73468556491991  LUMO = -0.174158704322332
   mo_energy = [-3.36436096e+01 -2.73468556e+00 -1.74158704e-01  3.94194827e-02
  6.62294699e-02  7.10410064e-02  6.34398663e-01  6.55755652e-01
  1.02290124e+00  2.13709269e+00  2.14531001e+00  2.14558192e+00
  2.16074088e+00  2.20204464e+00  5.28541876e+00  6.53312638e+00
  6.54200291e+00  6.54843107e+00  6.59371103e+00  6.64686499e+00
  1.71274421e+01  1.71563841e+01  1.72440885e+01  2.02421277e+01
  2.03663987e+01  2.21760773e+01  6.46915618e+01  6.47930370e+01
  7.88381382e+01  2.23287161e+02  2.23343245e+02  2.55253328e+02
  1.03482618e+03]
alpha-B1g nocc = 0
   mo_energy = [7.10410064e-02 6.55755652e-01 2.14531001e+00 2.16074088e+00
 2.20204464e+00 6.54843107e+00 6.59371103e+00 6.64686499e+00
 1.71563841e+01 1.72440885e+01 2.03663987e+01 6.47930370e+01
 2.23343245e+02]
alpha-B2g nocc = 0
   mo_energy = [6.71621440e-02 6.39716409e-01 2.14074382e+00 2.15178935e+00
 2.15754259e+00 6.53715918e+00 6.56702667e+00 6.56720530e+00
 1.71346643e+01 1.71927639e+01 2.02735866e+01 6.47169677e+01
 2.23301189e+02]
alpha-B3g nocc = 0
   mo_energy = [6.71621440e-02 6.39716409e-01 2.14074382e+00 2.15178935e+00
 2.15754259e+00 6.53715918e+00 6.56702667e+00 6.56720530e+00
 1.71346643e+01 1.71927639e+01 2.02735866e+01 6.47169677e+01
 2.23301189e+02]
alpha-Au nocc = 0
   mo_energy = [ 0.8782612   2.91421962  7.38256036 20.36060704 83.81827975]
alpha-B1u nocc = 1  HOMO = -1.74130141630148  LUMO = -0.109879261650375
   mo_energy = [-1.74130142e+00 -1.09879262e-01  1.90642772e-02  6.35002457e-01
  8.72652438e-01  8.78261195e-01  2.89599979e+00  2.91421962e+00
  3.37902354e+00  7.34470946e+00  7.38256036e+00  1.30844531e+01
  2.03021860e+01  2.03606070e+01  4.33332673e+01  8.37683774e+01
  8.38182798e+01  1.39330537e+02  4.49060540e+02]
alpha-B2u nocc = 1  HOMO = -1.60640759208933  LUMO = -0.105959973643023
   mo_energy = [-1.60640759e+00 -1.05959974e-01  2.65370174e-02  6.68089992e-01
  8.74054323e-01  8.85584800e-01  2.90064735e+00  2.93650296e+00
  3.46193056e+00  7.35414088e+00  7.43041192e+00  1.31963961e+01
  2.03167527e+01  2.04342491e+01  4.34359730e+01  8.37808448e+01
  8.38807811e+01  1.39398615e+02  4.49093859e+02]
alpha-B3u nocc = 1  HOMO = -1.60640759208934  LUMO = -0.105959973643025
   mo_energy = [-1.60640759e+00 -1.05959974e-01  2.65370174e-02  6.68089992e-01
  8.74054323e-01  8.85584800e-01  2.90064735e+00  2.93650296e+00
  3.46193056e+00  7.35414088e+00  7.43041192e+00  1.31963961e+01
  2.03167527e+01  2.04342491e+01  4.34359730e+01  8.37808448e+01
  8.38807811e+01  1.39398615e+02  4.49093859e+02]
beta-Ag nocc = 2  HOMO = -2.50852275702785  LUMO = -0.170928747672726
   mo_energy = [-3.35827256e+01 -2.50852276e+00 -1.70928748e-01  4.53141211e-02
  6.78421333e-02  7.09016137e-02  6.54600443e-01  6.55293704e-01
  1.04983106e+00  2.14274281e+00  2.14711801e+00  2.16031105e+00
  2.20659523e+00  2.22951722e+00  5.34215968e+00  6.55181645e+00
  6.56218529e+00  6.59326626e+00  6.66430277e+00  6.69061198e+00
  1.71778827e+01  1.71953037e+01  1.72476783e+01  2.03674877e+01
  2.03856453e+01  2.22262270e+01  6.47554881e+01  6.48044549e+01
  7.88633441e+01  2.23307989e+02  2.23347389e+02  2.55262338e+02
  1.03482862e+03]
beta-B1g nocc = 0
   mo_energy = [7.09016137e-02 6.55293704e-01 2.14711801e+00 2.16031105e+00
 2.20659523e+00 6.56218529e+00 6.59326626e+00 6.66430277e+00
 1.71953037e+01 1.72476783e+01 2.03856453e+01 6.48044549e+01
 2.23347389e+02]
beta-B2g nocc = 0
   mo_energy = [6.83827182e-02 6.54637427e-01 2.14383561e+00 2.15260248e+00
 2.22311107e+00 6.55440302e+00 6.57521387e+00 6.68341201e+00
 1.71822360e+01 1.72171075e+01 2.03719465e+01 6.47677343e+01
 2.23317841e+02]
beta-B3g nocc = 0
   mo_energy = [6.83827182e-02 6.54637427e-01 2.14383561e+00 2.15260248e+00
 2.22311107e+00 6.55440302e+00 6.57521387e+00 6.68341201e+00
 1.71822360e+01 1.72171075e+01 2.03719465e+01 6.47677343e+01
 2.23317841e+02]
beta-Au nocc = 0
   mo_energy = [ 0.87931433  2.92414035  7.41558217 20.41569611 83.85348484]
beta-B1u nocc = 0
   mo_energy = [-6.19360368e-01 -1.01268903e-01  4.07653509e-02  7.32372695e-01
  8.74808376e-01  8.79314325e-01  2.91452384e+00  2.92414035e+00
  3.55368651e+00  7.40088444e+00  7.41558217e+00  1.32327999e+01
  2.03920668e+01  2.04156961e+01  4.34159298e+01  8.38248611e+01
  8.38534848e+01  1.39363806e+02  4.49070382e+02]
beta-B2u nocc = 1  HOMO = -1.54723499397793  LUMO = -0.105450083680375
   mo_energy = [-1.54723499e+00 -1.05450084e-01  2.79286975e-02  6.76504861e-01
  8.75862786e-01  8.85240551e-01  2.91693843e+00  2.93597719e+00
  3.48394954e+00  7.40456504e+00  7.43386078e+00  1.32223072e+01
  2.03979742e+01  2.04452324e+01  4.34541371e+01  8.38320146e+01
  8.38893001e+01  1.39407027e+02  4.49096681e+02]
beta-B3u nocc = 1  HOMO = -1.54723499397793  LUMO = -0.105450083680367
   mo_energy = [-1.54723499e+00 -1.05450084e-01  2.79286975e-02  6.76504861e-01
  8.75862786e-01  8.85240551e-01  2.91693843e+00  2.93597719e+00
  3.48394954e+00  7.40456504e+00  7.43386078e+00  1.32223072e+01
  2.03979742e+01  2.04452324e+01  4.34541371e+01  8.38320146e+01
  8.38893001e+01  1.39407027e+02  4.49096681e+02]
multiplicity <S^2> = 0.75266806  2S+1 = 2.0026663
E1 = -175.12471625465002  Ecoul = 47.303421425130864
cycle= 6 E= -127.821294829519  delta_E= -1.02e-06  |g|= 0.000164  |ddm|= 0.00113
    CPU time for cycle= 6      0.35 sec, wall time      0.09 sec
diis-norm(errvec)=0.000232154
diis-c [-1.24335637e-08 -6.28051448e-05  5.67963235e-04 -8.27965051e-03
  8.72928203e-02 -3.33529713e-01  1.25401139e+00]
alpha HOMO (B2u) = -1.60645909654045  LUMO (Ag) = -0.174157207556309
alpha irrep_nelec = [2, 0, 0, 0, 0, 1, 1, 1]
beta  irrep_nelec = [2, 0, 0, 0, 0, 0, 1, 1]
alpha-Ag nocc = 2  HOMO = -2.73470702166133  LUMO = -0.174157207556309
   mo_energy = [-3.36435967e+01 -2.73470702e+00 -1.74157208e-01  3.94213384e-02
  6.62307006e-02  7.10424370e-02  6.34406013e-01  6.55767014e-01
  1.02290464e+00  2.13710098e+00  2.14531334e+00  2.14559246e+00
  2.16074409e+00  2.20205607e+00  5.28541972e+00  6.53314017e+00
  6.54201296e+00  6.54844427e+00  6.59372223e+00  6.64685493e+00
  1.71274624e+01  1.71564035e+01  1.72441008e+01  2.02421416e+01
  2.03663929e+01  2.21760848e+01  6.46915807e+01  6.47930459e+01
  7.88381585e+01  2.23287192e+02  2.23343273e+02  2.55253365e+02
  1.03482624e+03]
alpha-B1g nocc = 0
   mo_energy = [7.10424370e-02 6.55767014e-01 2.14531334e+00 2.16074409e+00
 2.20205607e+00 6.54844427e+00 6.59372223e+00 6.64685493e+00
 1.71564035e+01 1.72441008e+01 2.03663929e+01 6.47930459e+01
 2.23343273e+02]
alpha-B2g nocc = 0
   mo_energy = [6.71632957e-02 6.39725544e-01 2.14074781e+00 2.15179272e+00
 2.15755796e+00 6.53717241e+00 6.56703415e+00 6.56721818e+00
 1.71346845e+01 1.71927811e+01 2.02735965e+01 6.47169846e+01
 2.23301219e+02]
alpha-B3g nocc = 0
   mo_energy = [6.71632957e-02 6.39725544e-01 2.14074781e+00 2.15179272e+00
 2.15755796e+00 6.53717241e+00 6.56703415e+00 6.56721818e+00
 1.71346845e+01 1.71927811e+01 2.02735965e+01 6.47169846e+01
 2.23301219e+02]
alpha-Au nocc = 0
   mo_energy = [ 0.87826386  2.9142307   7.38257566 20.36061881 83.8182936 ]
alpha-B1u nocc = 1  HOMO = -1.74127178455448  LUMO = -0.109878182838647
   mo_energy = [-1.74127178e+00 -1.09878183e-01  1.90664862e-02  6.35011854e-01
  8.72654768e-01  8.78263856e-01  2.89600998e+00  2.91423070e+00
  3.37904327e+00  7.34472659e+00  7.38257566e+00  1.30844753e+01
  2.03022028e+01  2.03606188e+01  4.33332908e+01  8.37683950e+01
  8.38182936e+01  1.39330567e+02  4.49060586e+02]
alpha-B2u nocc = 1  HOMO = -1.60645909654045  LUMO = -0.105960280883222
   mo_energy = [-1.60645910e+00 -1.05960281e-01  2.65361330e-02  6.68084501e-01
  8.74056742e-01  8.85587615e-01  2.90065787e+00  2.93651352e+00
  3.46192106e+00  7.35415774e+00  7.43042200e+00  1.31963942e+01
  2.03167685e+01  2.04342515e+01  4.34359839e+01  8.37808616e+01
  8.38807892e+01  1.39398640e+02  4.49093904e+02]
alpha-B3u nocc = 1  HOMO = -1.60645909654046  LUMO = -0.105960280883208
   mo_energy = [-1.60645910e+00 -1.05960281e-01  2.65361330e-02  6.68084501e-01
  8.74056742e-01  8.85587615e-01  2.90065787e+00  2.93651352e+00
  3.46192106e+00  7.35415774e+00  7.43042200e+00  1.31963942e+01
  2.03167685e+01  2.04342515e+01  4.34359839e+01  8.37808616e+01
  8.38807892e+01  1.39398640e+02  4.49093904e+02]
beta-Ag nocc = 2  HOMO = -2.50848086361836  LUMO = -0.170929314238205
   mo_energy = [-3.35826762e+01 -2.50848086e+00 -1.70929314e-01  4.53141271e-02
  6.78415382e-02  7.09002480e-02  6.54599212e-01  6.55288199e-01
  1.04983679e+00  2.14274277e+00  2.14711752e+00  2.16030906e+00
  2.20660184e+00  2.22952209e+00  5.34218691e+00  6.55182176e+00
  6.56219029e+00  6.59327035e+00  6.66434605e+00  6.69063792e+00
  1.71779051e+01  1.71953275e+01  1.72477066e+01  2.03675240e+01
  2.03856999e+01  2.22262659e+01  6.47555204e+01  6.48044964e+01
  7.88633806e+01  2.23308025e+02  2.23347427e+02  2.55262381e+02
  1.03482868e+03]
beta-B1g nocc = 0
   mo_energy = [7.09002480e-02 6.55288199e-01 2.14711752e+00 2.16030906e+00
 2.20660184e+00 6.56219029e+00 6.59327035e+00 6.66434605e+00
 1.71953275e+01 1.72477066e+01 2.03856999e+01 6.48044964e+01
 2.23347427e+02]
beta-B2g nocc = 0
   mo_energy = [6.83820628e-02 6.54634021e-01 2.14383546e+00 2.15260139e+00
 2.22311238e+00 6.55440826e+00 6.57521824e+00 6.68343942e+00
 1.71822588e+01 1.72171332e+01 2.03719870e+01 6.47677691e+01
 2.23317878e+02]
beta-B3g nocc = 0
   mo_energy = [6.83820628e-02 6.54634021e-01 2.14383546e+00 2.15260139e+00
 2.22311238e+00 6.55440826e+00 6.57521824e+00 6.68343942e+00
 1.71822588e+01 1.72171332e+01 2.03719870e+01 6.47677691e+01
 2.23317878e+02]
beta-Au nocc = 0
   mo_energy = [ 0.87931309  2.9241398   7.41559558 20.41573367 83.85352015]
beta-B1u nocc = 0
   mo_energy = [-6.19353694e-01 -1.01268485e-01  4.07664738e-02  7.32378365e-01
  8.74807829e-01  8.79313086e-01  2.91452486e+00  2.92413980e+00
  3.55370119e+00  7.40089702e+00  7.41559558e+00  1.32328260e+01
  2.03920991e+01  2.04157337e+01  4.34159616e+01  8.38248926e+01
  8.38535202e+01  1.39363841e+02  4.49070431e+02]
beta-B2u nocc = 1  HOMO = -1.54714940380929  LUMO = -0.105449132238264
   mo_energy = [-1.54714940e+00 -1.05449132e-01  2.79312157e-02  6.76519584e-01
  8.75862086e-01  8.85238370e-01  2.91693896e+00  2.93597599e+00
  3.48398862e+00  7.40457767e+00  7.43387777e+00  1.32223558e+01
  2.03980078e+01  2.04452774e+01  4.34541804e+01  8.38320471e+01
  8.38893398e+01  1.39407066e+02  4.49096730e+02]
beta-B3u nocc = 1  HOMO = -1.54714940380932  LUMO = -0.105449132238262
   mo_energy = [-1.54714940e+00 -1.05449132e-01  2.79312157e-02  6.76519584e-01
  8.75862086e-01  8.85238370e-01  2.91693896e+00  2.93597599e+00
  3.48398862e+00  7.40457767e+00  7.43387777e+00  1.32223558e+01
  2.03980078e+01  2.04452774e+01  4.34541804e+01  8.38320471e+01
  8.38893398e+01  1.39407066e+02  4.49096730e+02]
multiplicity <S^2> = 0.75267208  2S+1 = 2.0026703
E1 = -175.12467606291523  Ecoul = 47.303381220086294
cycle= 7 E= -127.821294842829  delta_E= -1.33e-08  |g|= 2.18e-05  |ddm|= 0.00011
    CPU time for cycle= 7      0.35 sec, wall time      0.09 sec
diis-norm(errvec)=3.09003e-05
diis-c [-2.10721268e-10  1.14898327e-05 -7.87663158e-05  1.13040477e-03
 -1.41540486e-02  6.20149762e-02 -3.31473218e-01  1.28254916e+00]
alpha HOMO (B2u) = -1.6064636446652  LUMO (Ag) = -0.174156787826175
alpha irrep_nelec = [2, 0, 0, 0, 0, 1, 1, 1]
beta  irrep_nelec = [2, 0, 0, 0, 0, 0, 1, 1]
alpha-Ag nocc = 2  HOMO = -2.73470535128529  LUMO = -0.174156787826175
   mo_energy = [-3.36435920e+01 -2.73470535e+00 -1.74156788e-01  3.94218581e-02
  6.62310370e-02  7.10426733e-02  6.34407035e-01  6.55769070e-01
  1.02290618e+00  2.13710205e+00  2.14531423e+00  2.14559421e+00
  2.16074446e+00  2.20205844e+00  5.28542253e+00  6.53314290e+00
  6.54201708e+00  6.54844701e+00  6.59372465e+00  6.64685623e+00
  1.71274663e+01  1.71564075e+01  1.72441051e+01  2.02421466e+01
  2.03663959e+01  2.21760891e+01  6.46915853e+01  6.47930515e+01
  7.88381639e+01  2.23287197e+02  2.23343280e+02  2.55253371e+02
  1.03482624e+03]
alpha-B1g nocc = 0
   mo_energy = [7.10426733e-02 6.55769070e-01 2.14531423e+00 2.16074446e+00
 2.20205844e+00 6.54844701e+00 6.59372465e+00 6.64685623e+00
 1.71564075e+01 1.72441051e+01 2.03663959e+01 6.47930515e+01
 2.23343280e+02]
alpha-B2g nocc = 0
   mo_energy = [6.71635913e-02 6.39726965e-01 2.14074878e+00 2.15179341e+00
 2.15756013e+00 6.53717515e+00 6.56703775e+00 6.56722083e+00
 1.71346884e+01 1.71927854e+01 2.02736010e+01 6.47169896e+01
 2.23301224e+02]
alpha-B3g nocc = 0
   mo_energy = [6.71635913e-02 6.39726965e-01 2.14074878e+00 2.15179341e+00
 2.15756013e+00 6.53717515e+00 6.56703775e+00 6.56722083e+00
 1.71346884e+01 1.71927854e+01 2.02736010e+01 6.47169896e+01
 2.23301224e+02]
alpha-Au nocc = 0
   mo_energy = [ 0.87826443  2.91423271  7.38257884 20.36062302 83.81829888]
alpha-B1u nocc = 1  HOMO = -1.74125910839257  LUMO = -0.109877899112104
   mo_energy = [-1.74125911e+00 -1.09877899e-01  1.90670712e-02  6.35014904e-01
  8.72655481e-01  8.78264429e-01  2.89601189e+00  2.91423271e+00
  3.37904991e+00  7.34472973e+00  7.38257884e+00  1.30844817e+01
  2.03022070e+01  2.03606230e+01  4.33332957e+01  8.37683995e+01
  8.38182989e+01  1.39330572e+02  4.49060591e+02]
alpha-B2u nocc = 1  HOMO = -1.6064636446652  LUMO = -0.105960416565096
   mo_energy = [-1.60646364e+00 -1.05960417e-01  2.65358883e-02  6.68083933e-01
  8.74057420e-01  8.85587961e-01  2.90065982e+00  2.93651545e+00
  3.46192117e+00  7.35416090e+00  7.43042502e+00  1.31963967e+01
  2.03167727e+01  2.04342557e+01  4.34359887e+01  8.37808662e+01
  8.38807955e+01  1.39398646e+02  4.49093910e+02]
alpha-B3u nocc = 1  HOMO = -1.60646364466521  LUMO = -0.105960416565106
   mo_energy = [-1.60646364e+00 -1.05960417e-01  2.65358883e-02  6.68083933e-01
  8.74057420e-01  8.85587961e-01  2.90065982e+00  2.93651545e+00
  3.46192117e+00  7.35416090e+00  7.43042502e+00  1.31963967e+01
  2.03167727e+01  2.04342557e+01  4.34359887e+01  8.37808662e+01
  8.38807955e+01  1.39398646e+02  4.49093910e+02]
beta-Ag nocc = 2  HOMO = -2.50847525508996  LUMO = -0.170929125510922
   mo_energy = [-3.35826693e+01 -2.50847526e+00 -1.70929126e-01  4.53144757e-02
  6.78417374e-02  7.09001483e-02  6.54600260e-01  6.55288182e-01
  1.04983832e+00  2.14274367e+00  2.14711813e+00  2.16030880e+00
  2.20660337e+00  2.22952459e+00  5.34219122e+00  6.55182461e+00
  6.56219276e+00  6.59327181e+00  6.66435232e+00  6.69064179e+00
  1.71779093e+01  1.71953320e+01  1.72477122e+01  2.03675281e+01
  2.03857088e+01  2.22262720e+01  6.47555246e+01  6.48045053e+01
  7.88633868e+01  2.23308030e+02  2.23347435e+02  2.55262387e+02
  1.03482868e+03]
beta-B1g nocc = 0
   mo_energy = [7.09001483e-02 6.55288182e-01 2.14711813e+00 2.16030880e+00
 2.20660337e+00 6.56219276e+00 6.59327181e+00 6.66435232e+00
 1.71953320e+01 1.72477122e+01 2.03857088e+01 6.48045053e+01
 2.23347435e+02]
beta-B2g nocc = 0
   mo_energy = [6.83822045e-02 6.54634641e-01 2.14383628e+00 2.15260163e+00
 2.22311441e+00 6.55441102e+00 6.57522024e+00 6.68344387e+00
 1.71822630e+01 1.72171382e+01 2.03719923e+01 6.47677745e+01
 2.23317884e+02]
beta-B3g nocc = 0
   mo_energy = [6.83822045e-02 6.54634641e-01 2.14383628e+00 2.15260163e+00
 2.22311441e+00 6.55441102e+00 6.57522024e+00 6.68344387e+00
 1.71822630e+01 1.72171382e+01 2.03719923e+01 6.47677745e+01
 2.23317884e+02]
beta-Au nocc = 0
   mo_energy = [ 0.87931328  2.92414096  7.41559897 20.41573952 83.85352675]
beta-B1u nocc = 0
   mo_energy = [-6.19350627e-01 -1.01268311e-01  4.07668678e-02  7.32379888e-01
  8.74808377e-01  8.79313279e-01  2.91452675e+00  2.92414096e+00
  3.55370407e+00  7.40090050e+00  7.41559897e+00  1.32328295e+01
  2.03921033e+01  2.04157395e+01  4.34159650e+01  8.38248969e+01
  8.38535268e+01  1.39363845e+02  4.49070435e+02]
beta-B2u nocc = 1  HOMO = -1.54714090164414  LUMO = -0.105449107593804
   mo_energy = [-1.54714090e+00 -1.05449108e-01  2.79313842e-02  6.76521231e-01
  8.75862553e-01  8.85238120e-01  2.91694066e+00  2.93597645e+00
  3.48399371e+00  7.40458112e+00  7.43388119e+00  1.32223632e+01
  2.03980124e+01  2.04452854e+01  4.34541883e+01  8.38320520e+01
  8.38893493e+01  1.39407073e+02  4.49096736e+02]
beta-B3u nocc = 1  HOMO = -1.54714090164416  LUMO = -0.10544910759381
   mo_energy = [-1.54714090e+00 -1.05449108e-01  2.79313842e-02  6.76521231e-01
  8.75862553e-01  8.85238120e-01  2.91694066e+00  2.93597645e+00
  3.48399371e+00  7.40458112e+00  7.43388119e+00  1.32223632e+01
  2.03980124e+01  2.04452854e+01  4.34541883e+01  8.38320520e+01
  8.38893493e+01  1.39407073e+02  4.49096736e+02]
multiplicity <S^2> = 0.75267266  2S+1 = 2.0026709
E1 = -175.124678735349  Ecoul = 47.30338389228422
cycle= 8 E= -127.821294843065  delta_E= -2.36e-10  |g|= 2.34e-06  |ddm|= 1.49e-05
    CPU time for cycle= 8      0.35 sec, wall time      0.09 sec
diis-norm(errvec)=3.31062e-06
diis-c [-1.24474933e-12 -9.79736928e-07  8.76386875e-06 -1.16498786e-04
  1.67453490e-03 -8.22973906e-03  5.33134569e-02 -2.83217099e-01
  1.23656756e+00]
alpha HOMO (B3u) = -1.60646433644433  LUMO (Ag) = -0.174156767164223
alpha irrep_nelec = [2, 0, 0, 0, 0, 1, 1, 1]
beta  irrep_nelec = [2, 0, 0, 0, 0, 0, 1, 1]
alpha-Ag nocc = 2  HOMO = -2.73470543327438  LUMO = -0.174156767164223
   mo_energy = [-3.36435922e+01 -2.73470543e+00 -1.74156767e-01  3.94218716e-02
  6.62310507e-02  7.10426780e-02  6.34406967e-01  6.55769126e-01
  1.02290620e+00  2.13710198e+00  2.14531425e+00  2.14559420e+00
  2.16074443e+00  2.20205849e+00  5.28542247e+00  6.53314285e+00
  6.54201708e+00  6.54844695e+00  6.59372460e+00  6.64685599e+00
  1.71274661e+01  1.71564073e+01  1.72441050e+01  2.02421465e+01
  2.03663957e+01  2.21760889e+01  6.46915851e+01  6.47930514e+01
  7.88381637e+01  2.23287197e+02  2.23343280e+02  2.55253371e+02
  1.03482624e+03]
alpha-B1g nocc = 0
   mo_energy = [7.10426780e-02 6.55769126e-01 2.14531425e+00 2.16074443e+00
 2.20205849e+00 6.54844695e+00 6.59372460e+00 6.64685599e+00
 1.71564073e+01 1.72441050e+01 2.03663957e+01 6.47930514e+01
 2.23343280e+02]
alpha-B2g nocc = 0
   mo_energy = [6.71635994e-02 6.39726921e-01 2.14074879e+00 2.15179341e+00
 2.15756005e+00 6.53717511e+00 6.56703765e+00 6.56722076e+00
 1.71346883e+01 1.71927852e+01 2.02736008e+01 6.47169894e+01
 2.23301224e+02]
alpha-B3g nocc = 0
   mo_energy = [6.71635994e-02 6.39726921e-01 2.14074879e+00 2.15179341e+00
 2.15756005e+00 6.53717511e+00 6.56703765e+00 6.56722076e+00
 1.71346883e+01 1.71927852e+01 2.02736008e+01 6.47169894e+01
 2.23301224e+02]
alpha-Au nocc = 0
   mo_energy = [ 0.87826444  2.91423268  7.38257874 20.36062284 83.81829875]
alpha-B1u nocc = 1  HOMO = -1.74125859466767  LUMO = -0.109877859216208
   mo_energy = [-1.74125859e+00 -1.09877859e-01  1.90671440e-02  6.35015135e-01
  8.72655510e-01  8.78264439e-01  2.89601186e+00  2.91423268e+00
  3.37905020e+00  7.34472963e+00  7.38257874e+00  1.30844817e+01
  2.03022068e+01  2.03606228e+01  4.33332956e+01  8.37683992e+01
  8.38182988e+01  1.39330572e+02  4.49060591e+02]
alpha-B2u nocc = 1  HOMO = -1.60646433644434  LUMO = -0.105960422747914
   mo_energy = [-1.60646434e+00 -1.05960423e-01  2.65358724e-02  6.68083797e-01
  8.74057444e-01  8.85587953e-01  2.90065979e+00  2.93651545e+00
  3.46192082e+00  7.35416080e+00  7.43042496e+00  1.31963964e+01
  2.03167725e+01  2.04342555e+01  4.34359886e+01  8.37808660e+01
  8.38807955e+01  1.39398646e+02  4.49093910e+02]
alpha-B3u nocc = 1  HOMO = -1.60646433644433  LUMO = -0.105960422747909
   mo_energy = [-1.60646434e+00 -1.05960423e-01  2.65358724e-02  6.68083797e-01
  8.74057444e-01  8.85587953e-01  2.90065979e+00  2.93651545e+00
  3.46192082e+00  7.35416080e+00  7.43042496e+00  1.31963964e+01
  2.03167725e+01  2.04342555e+01  4.34359886e+01  8.37808660e+01
  8.38807955e+01  1.39398646e+02  4.49093910e+02]
beta-Ag nocc = 2  HOMO = -2.50847506767113  LUMO = -0.170929112463876
   mo_energy = [-3.35826693e+01 -2.50847507e+00 -1.70929112e-01  4.53144912e-02
  6.78417516e-02  7.09001296e-02  6.54600296e-01  6.55288060e-01
  1.04983834e+00  2.14274373e+00  2.14711815e+00  2.16030871e+00
  2.20660319e+00  2.22952461e+00  5.34219122e+00  6.55182465e+00
  6.56219274e+00  6.59327160e+00  6.66435226e+00  6.69064168e+00
  1.71779091e+01  1.71953319e+01  1.72477121e+01  2.03675278e+01
  2.03857089e+01  2.22262719e+01  6.47555243e+01  6.48045054e+01
  7.88633867e+01  2.23308030e+02  2.23347435e+02  2.55262386e+02
  1.03482868e+03]
beta-B1g nocc = 0
   mo_energy = [7.09001296e-02 6.55288060e-01 2.14711815e+00 2.16030871e+00
 2.20660319e+00 6.56219274e+00 6.59327160e+00 6.66435226e+00
 1.71953319e+01 1.72477121e+01 2.03857089e+01 6.48045054e+01
 2.23347435e+02]
beta-B2g nocc = 0
   mo_energy = [6.83822158e-02 6.54634661e-01 2.14383633e+00 2.15260161e+00
 2.22311445e+00 6.55441105e+00 6.57522015e+00 6.68344380e+00
 1.71822629e+01 1.72171380e+01 2.03719921e+01 6.47677743e+01
 2.23317883e+02]
beta-B3g nocc = 0
   mo_energy = [6.83822158e-02 6.54634661e-01 2.14383633e+00 2.15260161e+00
 2.22311445e+00 6.55441105e+00 6.57522015e+00 6.68344380e+00
 1.71822629e+01 1.72171380e+01 2.03719921e+01 6.47677743e+01
 2.23317883e+02]
beta-Au nocc = 0
   mo_energy = [ 0.87931328  2.92414093  7.41559889 20.4157394  83.85352666]
beta-B1u nocc = 0
   mo_energy = [-6.19350579e-01 -1.01268300e-01  4.07668873e-02  7.32379918e-01
  8.74808416e-01  8.79313278e-01  2.91452681e+00  2.92414093e+00
  3.55370401e+00  7.40090048e+00  7.41559889e+00  1.32328292e+01
  2.03921030e+01  2.04157394e+01  4.34159646e+01  8.38248966e+01
  8.38535267e+01  1.39363845e+02  4.49070435e+02]
beta-B2u nocc = 1  HOMO = -1.54714100445882  LUMO = -0.105449108919932
   mo_energy = [-1.54714100e+00 -1.05449109e-01  2.79313819e-02  6.76521186e-01
  8.75862583e-01  8.85238065e-01  2.91694070e+00  2.93597628e+00
  3.48399361e+00  7.40458109e+00  7.43388101e+00  1.32223632e+01
  2.03980121e+01  2.04452854e+01  4.34541883e+01  8.38320517e+01
  8.38893496e+01  1.39407073e+02  4.49096736e+02]
beta-B3u nocc = 1  HOMO = -1.54714100445881  LUMO = -0.105449108919935
   mo_energy = [-1.54714100e+00 -1.05449109e-01  2.79313819e-02  6.76521186e-01
  8.75862583e-01  8.85238065e-01  2.91694070e+00  2.93597628e+00
  3.48399361e+00  7.40458109e+00  7.43388101e+00  1.32223632e+01
  2.03980121e+01  2.04452854e+01  4.34541883e+01  8.38320517e+01
  8.38893496e+01  1.39407073e+02  4.49096736e+02]
multiplicity <S^2> = 0.75267272  2S+1 = 2.0026709
[...]
multiplicity <S^2> = 0.75267272  2S+1 = 2.0026709
E1 = -175.12467778837083  Ecoul = 47.303382945304094
cycle= 52 E= -127.821294843067  delta_E= 4.26e-14  |g|= 2.07e-12  |ddm|= 2.33e-12
    CPU time for cycle= 52      0.37 sec, wall time      0.09 sec
diis-norm(errvec)=3.67834e-12
Linear dependence found in DIIS error vectors.
diis-c [-2.89052492e-16  1.25000000e-01  1.25000000e-01  1.25000000e-01
  1.25000000e-01  1.25000000e-01  1.25000000e-01  1.25000000e-01
  1.25000000e-01]
alpha HOMO (B2u) = -1.60646438530224  LUMO (Ag) = -0.174156774817237
alpha irrep_nelec = [2, 0, 0, 0, 0, 1, 1, 1]
beta  irrep_nelec = [2, 0, 0, 0, 0, 0, 1, 1]
alpha-Ag nocc = 2  HOMO = -2.73470547608828  LUMO = -0.174156774817237
   mo_energy = [-3.36435923e+01 -2.73470548e+00 -1.74156775e-01  3.94218625e-02
  6.62310469e-02  7.10426739e-02  6.34406948e-01  6.55769111e-01
  1.02290617e+00  2.13710196e+00  2.14531424e+00  2.14559418e+00
  2.16074442e+00  2.20205847e+00  5.28542242e+00  6.53314281e+00
  6.54201704e+00  6.54844692e+00  6.59372456e+00  6.64685593e+00
  1.71274661e+01  1.71564073e+01  1.72441050e+01  2.02421464e+01
  2.03663956e+01  2.21760888e+01  6.46915850e+01  6.47930513e+01
  7.88381636e+01  2.23287197e+02  2.23343280e+02  2.55253371e+02
  1.03482624e+03]
alpha-B1g nocc = 0
   mo_energy = [7.10426739e-02 6.55769111e-01 2.14531424e+00 2.16074442e+00
 2.20205847e+00 6.54844692e+00 6.59372456e+00 6.64685593e+00
 1.71564073e+01 1.72441050e+01 2.03663956e+01 6.47930513e+01
 2.23343280e+02]
alpha-B2g nocc = 0
   mo_energy = [6.71635951e-02 6.39726901e-01 2.14074878e+00 2.15179340e+00
 2.15756003e+00 6.53717508e+00 6.56703760e+00 6.56722073e+00
 1.71346882e+01 1.71927851e+01 2.02736008e+01 6.47169893e+01
 2.23301224e+02]
alpha-B3g nocc = 0
   mo_energy = [6.71635951e-02 6.39726901e-01 2.14074878e+00 2.15179340e+00
 2.15756003e+00 6.53717508e+00 6.56703760e+00 6.56722073e+00
 1.71346882e+01 1.71927851e+01 2.02736008e+01 6.47169893e+01
 2.23301224e+02]
alpha-Au nocc = 0
   mo_energy = [ 0.87826443  2.91423266  7.38257869 20.36062277 83.81829865]
alpha-B1u nocc = 1  HOMO = -1.74125860610494  LUMO = -0.109877860831225
   mo_energy = [-1.74125861e+00 -1.09877861e-01  1.90671405e-02  6.35015122e-01
  8.72655503e-01  8.78264430e-01  2.89601184e+00  2.91423266e+00
  3.37905017e+00  7.34472959e+00  7.38257869e+00  1.30844817e+01
  2.03022068e+01  2.03606228e+01  4.33332955e+01  8.37683991e+01
  8.38182987e+01  1.39330572e+02  4.49060590e+02]
alpha-B2u nocc = 1  HOMO = -1.60646438530224  LUMO = -0.105960424910144
   mo_energy = [-1.60646439e+00 -1.05960425e-01  2.65358672e-02  6.68083774e-01
  8.74057436e-01  8.85587944e-01  2.90065976e+00  2.93651543e+00
  3.46192077e+00  7.35416075e+00  7.43042491e+00  1.31963964e+01
  2.03167724e+01  2.04342554e+01  4.34359885e+01  8.37808659e+01
  8.38807954e+01  1.39398646e+02  4.49093910e+02]
alpha-B3u nocc = 1  HOMO = -1.60646438530226  LUMO = -0.105960424910136
   mo_energy = [-1.60646439e+00 -1.05960425e-01  2.65358672e-02  6.68083774e-01
  8.74057436e-01  8.85587944e-01  2.90065976e+00  2.93651543e+00
  3.46192077e+00  7.35416075e+00  7.43042491e+00  1.31963964e+01
  2.03167724e+01  2.04342554e+01  4.34359885e+01  8.37808659e+01
  8.38807954e+01  1.39398646e+02  4.49093910e+02]
beta-Ag nocc = 2  HOMO = -2.50847513578862  LUMO = -0.170929116091428
   mo_energy = [-3.35826694e+01 -2.50847514e+00 -1.70929116e-01  4.53144868e-02
  6.78417500e-02  7.09001263e-02  6.54600287e-01  6.55288045e-01
  1.04983832e+00  2.14274373e+00  2.14711814e+00  2.16030870e+00
  2.20660315e+00  2.22952458e+00  5.34219116e+00  6.55182463e+00
  6.56219271e+00  6.59327155e+00  6.66435219e+00  6.69064162e+00
  1.71779091e+01  1.71953318e+01  1.72477121e+01  2.03675277e+01
  2.03857088e+01  2.22262719e+01  6.47555242e+01  6.48045053e+01
  7.88633866e+01  2.23308030e+02  2.23347435e+02  2.55262386e+02
  1.03482868e+03]
beta-B1g nocc = 0
   mo_energy = [7.09001263e-02 6.55288045e-01 2.14711814e+00 2.16030870e+00
 2.20660315e+00 6.56219271e+00 6.59327155e+00 6.66435219e+00
 1.71953318e+01 1.72477121e+01 2.03857088e+01 6.48045053e+01
 2.23347435e+02]
beta-B2g nocc = 0
   mo_energy = [6.83822147e-02 6.54634655e-01 2.14383633e+00 2.15260160e+00
 2.22311442e+00 6.55441102e+00 6.57522011e+00 6.68344373e+00
 1.71822628e+01 1.72171380e+01 2.03719920e+01 6.47677742e+01
 2.23317883e+02]
beta-B3g nocc = 0
   mo_energy = [6.83822147e-02 6.54634655e-01 2.14383633e+00 2.15260160e+00
 2.22311442e+00 6.55441102e+00 6.57522011e+00 6.68344373e+00
 1.71822628e+01 1.72171380e+01 2.03719920e+01 6.47677742e+01
 2.23317883e+02]
beta-Au nocc = 0
   mo_energy = [ 0.87931327  2.92414091  7.41559884 20.41573932 83.85352656]
beta-B1u nocc = 0
   mo_energy = [-6.19350626e-01 -1.01268301e-01  4.07668836e-02  7.32379901e-01
  8.74808413e-01  8.79313274e-01  2.91452680e+00  2.92414091e+00
  3.55370396e+00  7.40090044e+00  7.41559884e+00  1.32328291e+01
  2.03921030e+01  2.04157393e+01  4.34159645e+01  8.38248964e+01
  8.38535266e+01  1.39363844e+02  4.49070435e+02]
beta-B2u nocc = 1  HOMO = -1.54714108675525  LUMO = -0.105449110795729
   mo_energy = [-1.54714109e+00 -1.05449111e-01  2.79313773e-02  6.76521164e-01
  8.75862580e-01  8.85238057e-01  2.91694068e+00  2.93597625e+00
  3.48399355e+00  7.40458104e+00  7.43388095e+00  1.32223631e+01
  2.03980121e+01  2.04452854e+01  4.34541882e+01  8.38320516e+01
  8.38893495e+01  1.39407073e+02  4.49096736e+02]
beta-B3u nocc = 1  HOMO = -1.54714108675525  LUMO = -0.105449110795733
   mo_energy = [-1.54714109e+00 -1.05449111e-01  2.79313773e-02  6.76521164e-01
  8.75862580e-01  8.85238057e-01  2.91694068e+00  2.93597625e+00
  3.48399355e+00  7.40458104e+00  7.43388095e+00  1.32223631e+01
  2.03980121e+01  2.04452854e+01  4.34541882e+01  8.38320516e+01
  8.38893495e+01  1.39407073e+02  4.49096736e+02]
multiplicity <S^2> = 0.75267272  2S+1 = 2.0026709
E1 = -175.124677788371  Ecoul = 47.30338294530418
cycle= 53 E= -127.821294843067  delta_E= -8.53e-14  |g|= 1.98e-12  |ddm|= 4.2e-12
    CPU time for cycle= 53      0.36 sec, wall time      0.09 sec
diis-norm(errvec)=2.31427e-12
Linear dependence found in DIIS error vectors.
diis-c [-2.89052492e-16  1.25000000e-01  1.25000000e-01  1.25000000e-01
  1.25000000e-01  1.25000000e-01  1.25000000e-01  1.25000000e-01
  1.25000000e-01]
alpha HOMO (B3u) = -1.60646438530215  LUMO (Ag) = -0.174156774817239
alpha irrep_nelec = [2, 0, 0, 0, 0, 1, 1, 1]
beta  irrep_nelec = [2, 0, 0, 0, 0, 0, 1, 1]
alpha-Ag nocc = 2  HOMO = -2.73470547608845  LUMO = -0.174156774817239
   mo_energy = [-3.36435923e+01 -2.73470548e+00 -1.74156775e-01  3.94218625e-02
  6.62310469e-02  7.10426739e-02  6.34406948e-01  6.55769111e-01
  1.02290617e+00  2.13710196e+00  2.14531424e+00  2.14559418e+00
  2.16074442e+00  2.20205847e+00  5.28542242e+00  6.53314281e+00
  6.54201704e+00  6.54844692e+00  6.59372456e+00  6.64685593e+00
  1.71274661e+01  1.71564073e+01  1.72441050e+01  2.02421464e+01
  2.03663956e+01  2.21760888e+01  6.46915850e+01  6.47930513e+01
  7.88381636e+01  2.23287197e+02  2.23343280e+02  2.55253371e+02
  1.03482624e+03]
alpha-B1g nocc = 0
   mo_energy = [7.10426739e-02 6.55769111e-01 2.14531424e+00 2.16074442e+00
 2.20205847e+00 6.54844692e+00 6.59372456e+00 6.64685593e+00
 1.71564073e+01 1.72441050e+01 2.03663956e+01 6.47930513e+01
 2.23343280e+02]
alpha-B2g nocc = 0
   mo_energy = [6.71635951e-02 6.39726901e-01 2.14074878e+00 2.15179340e+00
 2.15756003e+00 6.53717508e+00 6.56703760e+00 6.56722073e+00
 1.71346882e+01 1.71927851e+01 2.02736008e+01 6.47169893e+01
 2.23301224e+02]
alpha-B3g nocc = 0
   mo_energy = [6.71635951e-02 6.39726901e-01 2.14074878e+00 2.15179340e+00
 2.15756003e+00 6.53717508e+00 6.56703760e+00 6.56722073e+00
 1.71346882e+01 1.71927851e+01 2.02736008e+01 6.47169893e+01
 2.23301224e+02]
alpha-Au nocc = 0
   mo_energy = [ 0.87826443  2.91423266  7.38257869 20.36062277 83.81829865]
alpha-B1u nocc = 1  HOMO = -1.74125860610492  LUMO = -0.109877860831237
   mo_energy = [-1.74125861e+00 -1.09877861e-01  1.90671405e-02  6.35015122e-01
  8.72655503e-01  8.78264430e-01  2.89601184e+00  2.91423266e+00
  3.37905017e+00  7.34472959e+00  7.38257869e+00  1.30844817e+01
  2.03022068e+01  2.03606228e+01  4.33332955e+01  8.37683991e+01
  8.38182987e+01  1.39330572e+02  4.49060590e+02]
alpha-B2u nocc = 1  HOMO = -1.60646438530218  LUMO = -0.105960424910135
   mo_energy = [-1.60646439e+00 -1.05960425e-01  2.65358672e-02  6.68083774e-01
  8.74057436e-01  8.85587944e-01  2.90065976e+00  2.93651543e+00
  3.46192077e+00  7.35416075e+00  7.43042491e+00  1.31963964e+01
  2.03167724e+01  2.04342554e+01  4.34359885e+01  8.37808659e+01
  8.38807954e+01  1.39398646e+02  4.49093910e+02]
alpha-B3u nocc = 1  HOMO = -1.60646438530215  LUMO = -0.105960424910137
   mo_energy = [-1.60646439e+00 -1.05960425e-01  2.65358672e-02  6.68083774e-01
  8.74057436e-01  8.85587944e-01  2.90065976e+00  2.93651543e+00
  3.46192077e+00  7.35416075e+00  7.43042491e+00  1.31963964e+01
  2.03167724e+01  2.04342554e+01  4.34359885e+01  8.37808659e+01
  8.38807954e+01  1.39398646e+02  4.49093910e+02]
beta-Ag nocc = 2  HOMO = -2.50847513578865  LUMO = -0.170929116091463
   mo_energy = [-3.35826694e+01 -2.50847514e+00 -1.70929116e-01  4.53144868e-02
  6.78417500e-02  7.09001263e-02  6.54600287e-01  6.55288045e-01
  1.04983832e+00  2.14274373e+00  2.14711814e+00  2.16030870e+00
  2.20660315e+00  2.22952458e+00  5.34219116e+00  6.55182463e+00
  6.56219271e+00  6.59327155e+00  6.66435219e+00  6.69064162e+00
  1.71779091e+01  1.71953318e+01  1.72477121e+01  2.03675277e+01
  2.03857088e+01  2.22262719e+01  6.47555242e+01  6.48045053e+01
  7.88633866e+01  2.23308030e+02  2.23347435e+02  2.55262386e+02
  1.03482868e+03]
beta-B1g nocc = 0
   mo_energy = [7.09001263e-02 6.55288045e-01 2.14711814e+00 2.16030870e+00
 2.20660315e+00 6.56219271e+00 6.59327155e+00 6.66435219e+00
 1.71953318e+01 1.72477121e+01 2.03857088e+01 6.48045053e+01
 2.23347435e+02]
beta-B2g nocc = 0
   mo_energy = [6.83822147e-02 6.54634655e-01 2.14383633e+00 2.15260160e+00
 2.22311442e+00 6.55441102e+00 6.57522011e+00 6.68344373e+00
 1.71822628e+01 1.72171380e+01 2.03719920e+01 6.47677742e+01
 2.23317883e+02]
beta-B3g nocc = 0
   mo_energy = [6.83822147e-02 6.54634655e-01 2.14383633e+00 2.15260160e+00
 2.22311442e+00 6.55441102e+00 6.57522011e+00 6.68344373e+00
 1.71822628e+01 1.72171380e+01 2.03719920e+01 6.47677742e+01
 2.23317883e+02]
beta-Au nocc = 0
   mo_energy = [ 0.87931327  2.92414091  7.41559884 20.41573932 83.85352656]
beta-B1u nocc = 0
   mo_energy = [-6.19350626e-01 -1.01268301e-01  4.07668836e-02  7.32379901e-01
  8.74808413e-01  8.79313274e-01  2.91452680e+00  2.92414091e+00
  3.55370396e+00  7.40090044e+00  7.41559884e+00  1.32328291e+01
  2.03921030e+01  2.04157393e+01  4.34159645e+01  8.38248964e+01
  8.38535266e+01  1.39363844e+02  4.49070435e+02]
beta-B2u nocc = 1  HOMO = -1.54714108675534  LUMO = -0.105449110795714
   mo_energy = [-1.54714109e+00 -1.05449111e-01  2.79313773e-02  6.76521164e-01
  8.75862580e-01  8.85238057e-01  2.91694068e+00  2.93597625e+00
  3.48399355e+00  7.40458104e+00  7.43388095e+00  1.32223631e+01
  2.03980121e+01  2.04452854e+01  4.34541882e+01  8.38320516e+01
  8.38893495e+01  1.39407073e+02  4.49096736e+02]
beta-B3u nocc = 1  HOMO = -1.54714108675535  LUMO = -0.10544911079573
   mo_energy = [-1.54714109e+00 -1.05449111e-01  2.79313773e-02  6.76521164e-01
  8.75862580e-01  8.85238057e-01  2.91694068e+00  2.93597625e+00
  3.48399355e+00  7.40458104e+00  7.43388095e+00  1.32223631e+01
  2.03980121e+01  2.04452854e+01  4.34541882e+01  8.38320516e+01
  8.38893495e+01  1.39407073e+02  4.49096736e+02]
multiplicity <S^2> = 0.75267272  2S+1 = 2.0026709
E1 = -175.12467778837063  Ecoul = 47.303382945303866
cycle= 54 E= -127.821294843067  delta_E= 5.68e-14  |g|= 1.66e-12  |ddm|= 8.24e-13
    CPU time for cycle= 54      0.40 sec, wall time      0.10 sec
alpha HOMO (B3u) = -1.60646438530191  LUMO (Ag) = -0.17415677481726
alpha irrep_nelec = [2, 0, 0, 0, 0, 1, 1, 1]
beta  irrep_nelec = [2, 0, 0, 0, 0, 0, 1, 1]
alpha-Ag nocc = 2  HOMO = -2.7347054760881  LUMO = -0.17415677481726
   mo_energy = [-3.36435923e+01 -2.73470548e+00 -1.74156775e-01  3.94218625e-02
  6.62310469e-02  7.10426739e-02  6.34406948e-01  6.55769111e-01
  1.02290617e+00  2.13710196e+00  2.14531424e+00  2.14559418e+00
  2.16074442e+00  2.20205847e+00  5.28542242e+00  6.53314281e+00
  6.54201704e+00  6.54844692e+00  6.59372456e+00  6.64685593e+00
  1.71274661e+01  1.71564073e+01  1.72441050e+01  2.02421464e+01
  2.03663956e+01  2.21760888e+01  6.46915850e+01  6.47930513e+01
  7.88381636e+01  2.23287197e+02  2.23343280e+02  2.55253371e+02
  1.03482624e+03]
alpha-B1g nocc = 0
   mo_energy = [7.10426739e-02 6.55769111e-01 2.14531424e+00 2.16074442e+00
 2.20205847e+00 6.54844692e+00 6.59372456e+00 6.64685593e+00
 1.71564073e+01 1.72441050e+01 2.03663956e+01 6.47930513e+01
 2.23343280e+02]
alpha-B2g nocc = 0
   mo_energy = [6.71635951e-02 6.39726901e-01 2.14074878e+00 2.15179340e+00
 2.15756003e+00 6.53717508e+00 6.56703760e+00 6.56722073e+00
 1.71346882e+01 1.71927851e+01 2.02736008e+01 6.47169893e+01
 2.23301224e+02]
alpha-B3g nocc = 0
   mo_energy = [6.71635951e-02 6.39726901e-01 2.14074878e+00 2.15179340e+00
 2.15756003e+00 6.53717508e+00 6.56703760e+00 6.56722073e+00
 1.71346882e+01 1.71927851e+01 2.02736008e+01 6.47169893e+01
 2.23301224e+02]
alpha-Au nocc = 0
   mo_energy = [ 0.87826443  2.91423266  7.38257869 20.36062277 83.81829865]
alpha-B1u nocc = 1  HOMO = -1.74125860610478  LUMO = -0.109877860831246
   mo_energy = [-1.74125861e+00 -1.09877861e-01  1.90671405e-02  6.35015122e-01
  8.72655503e-01  8.78264430e-01  2.89601184e+00  2.91423266e+00
  3.37905017e+00  7.34472959e+00  7.38257869e+00  1.30844817e+01
  2.03022068e+01  2.03606228e+01  4.33332955e+01  8.37683991e+01
  8.38182987e+01  1.39330572e+02  4.49060590e+02]
alpha-B2u nocc = 1  HOMO = -1.60646438530192  LUMO = -0.105960424910135
   mo_energy = [-1.60646439e+00 -1.05960425e-01  2.65358672e-02  6.68083774e-01
  8.74057436e-01  8.85587944e-01  2.90065976e+00  2.93651543e+00
  3.46192077e+00  7.35416075e+00  7.43042491e+00  1.31963964e+01
  2.03167724e+01  2.04342554e+01  4.34359885e+01  8.37808659e+01
  8.38807954e+01  1.39398646e+02  4.49093910e+02]
alpha-B3u nocc = 1  HOMO = -1.60646438530191  LUMO = -0.10596042491015
   mo_energy = [-1.60646439e+00 -1.05960425e-01  2.65358672e-02  6.68083774e-01
  8.74057436e-01  8.85587944e-01  2.90065976e+00  2.93651543e+00
  3.46192077e+00  7.35416075e+00  7.43042491e+00  1.31963964e+01
  2.03167724e+01  2.04342554e+01  4.34359885e+01  8.37808659e+01
  8.38807954e+01  1.39398646e+02  4.49093910e+02]
beta-Ag nocc = 2  HOMO = -2.50847513578901  LUMO = -0.17092911609142
   mo_energy = [-3.35826694e+01 -2.50847514e+00 -1.70929116e-01  4.53144868e-02
  6.78417500e-02  7.09001263e-02  6.54600287e-01  6.55288045e-01
  1.04983832e+00  2.14274373e+00  2.14711814e+00  2.16030870e+00
  2.20660315e+00  2.22952458e+00  5.34219116e+00  6.55182463e+00
  6.56219271e+00  6.59327155e+00  6.66435219e+00  6.69064162e+00
  1.71779091e+01  1.71953318e+01  1.72477121e+01  2.03675277e+01
  2.03857088e+01  2.22262719e+01  6.47555242e+01  6.48045053e+01
  7.88633866e+01  2.23308030e+02  2.23347435e+02  2.55262386e+02
  1.03482868e+03]
beta-B1g nocc = 0
   mo_energy = [7.09001263e-02 6.55288045e-01 2.14711814e+00 2.16030870e+00
 2.20660315e+00 6.56219271e+00 6.59327155e+00 6.66435219e+00
 1.71953318e+01 1.72477121e+01 2.03857088e+01 6.48045053e+01
 2.23347435e+02]
beta-B2g nocc = 0
   mo_energy = [6.83822147e-02 6.54634655e-01 2.14383633e+00 2.15260160e+00
 2.22311442e+00 6.55441102e+00 6.57522011e+00 6.68344373e+00
 1.71822628e+01 1.72171380e+01 2.03719920e+01 6.47677742e+01
 2.23317883e+02]
beta-B3g nocc = 0
   mo_energy = [6.83822147e-02 6.54634655e-01 2.14383633e+00 2.15260160e+00
 2.22311442e+00 6.55441102e+00 6.57522011e+00 6.68344373e+00
 1.71822628e+01 1.72171380e+01 2.03719920e+01 6.47677742e+01
 2.23317883e+02]
beta-Au nocc = 0
   mo_energy = [ 0.87931327  2.92414091  7.41559884 20.41573932 83.85352656]
beta-B1u nocc = 0
   mo_energy = [-6.19350626e-01 -1.01268301e-01  4.07668836e-02  7.32379901e-01
  8.74808413e-01  8.79313274e-01  2.91452680e+00  2.92414091e+00
  3.55370396e+00  7.40090044e+00  7.41559884e+00  1.32328291e+01
  2.03921030e+01  2.04157393e+01  4.34159645e+01  8.38248964e+01
  8.38535266e+01  1.39363844e+02  4.49070435e+02]
beta-B2u nocc = 1  HOMO = -1.54714108675571  LUMO = -0.10544911079573
   mo_energy = [-1.54714109e+00 -1.05449111e-01  2.79313773e-02  6.76521164e-01
  8.75862580e-01  8.85238057e-01  2.91694068e+00  2.93597625e+00
  3.48399355e+00  7.40458104e+00  7.43388095e+00  1.32223631e+01
  2.03980121e+01  2.04452854e+01  4.34541882e+01  8.38320516e+01
  8.38893495e+01  1.39407073e+02  4.49096736e+02]
beta-B3u nocc = 1  HOMO = -1.54714108675568  LUMO = -0.105449110795725
   mo_energy = [-1.54714109e+00 -1.05449111e-01  2.79313773e-02  6.76521164e-01
  8.75862580e-01  8.85238057e-01  2.91694068e+00  2.93597625e+00
  3.48399355e+00  7.40458104e+00  7.43388095e+00  1.32223631e+01
  2.03980121e+01  2.04452854e+01  4.34541882e+01  8.38320516e+01
  8.38893495e+01  1.39407073e+02  4.49096736e+02]
multiplicity <S^2> = 0.75267272  2S+1 = 2.0026709
E1 = -175.12467778837095  Ecoul = 47.30338294530428
Extra cycle  E= -127.821294843067  delta_E= 9.95e-14  |g|= 1.38e-12  |ddm|= 8.24e-13
    CPU time for scf_cycle     24.21 sec, wall time      6.22 sec
    CPU time for SCF     24.21 sec, wall time      6.22 sec
converged SCF energy = -127.821294843067  <S^2> = 0.75267272  2S+1 = 2.0026709
irreps of each MO ['Ag' 'Ag' 'B1u' 'B2u' 'B3u' 'Ag' 'B1u' 'B2u' 'B3u' 'B1u' 'B2u' 'B3u' 'Ag'
 'Ag' 'B2g' 'B3g' 'Ag' 'B1g' 'Ag' 'B1u' 'B2g' 'B3g' 'Ag' 'B1g' 'B2u' 'B3u'
 'B1u' 'B2u' 'B3u' 'Au' 'B1u' 'B2u' 'B3u' 'Ag' 'Ag' 'B2g' 'B3g' 'Ag' 'B1g'
 'Ag' 'B2g' 'B3g' 'B2g' 'B3g' 'Ag' 'B1g' 'Ag' 'B1g' 'B1u' 'B2u' 'B3u' 'Au'
 'B1u' 'B2u' 'B3u' 'B1u' 'B2u' 'B3u' 'Ag' 'Ag' 'B2g' 'B3g' 'Ag' 'Ag' 'B1g'
 'B2g' 'B3g' 'B2g' 'B3g' 'Ag' 'B1g' 'Ag' 'B1g' 'B1u' 'B2u' 'B3u' 'Au'
 'B1u' 'B2u' 'B3u' 'B1u' 'B2u' 'B3u' 'Ag' 'B2g' 'B3g' 'Ag' 'B1g' 'B2g'
 'B3g' 'Ag' 'B1g' 'Ag' 'B2g' 'B3g' 'B1u' 'B2u' 'B3u' 'Au' 'B1u' 'Ag' 'B1g'
 'B2u' 'B3u' 'Ag' 'B1u' 'B2u' 'B3u' 'Ag' 'B2g' 'B3g' 'Ag' 'B1g' 'Ag' 'B1u'
 'B2u' 'B3u' 'Au' 'B1u' 'B2u' 'B3u' 'B1u' 'B2u' 'B3u' 'Ag' 'B2g' 'B3g'
 'Ag' 'B1g' 'Ag' 'B1u' 'B2u' 'B3u' 'Ag']
irreps of each MO ['Ag' 'Ag' 'B2u' 'B3u' 'B1u' 'Ag' 'B2u' 'B3u' 'B1u' 'B2u' 'B3u' 'B1u' 'Ag'
 'Ag' 'B2g' 'B3g' 'Ag' 'B1g' 'Ag' 'B2g' 'B3g' 'Ag' 'B1g' 'B2u' 'B3u' 'B1u'
 'B1u' 'B2u' 'B3u' 'Au' 'B1u' 'B2u' 'B3u' 'Ag' 'Ag' 'B2g' 'B3g' 'Ag' 'B1g'
 'B2g' 'B3g' 'Ag' 'B1g' 'Ag' 'B1g' 'B2g' 'B3g' 'Ag' 'B1u' 'B2u' 'B3u' 'Au'
 'B1u' 'B2u' 'B3u' 'B2u' 'B3u' 'B1u' 'Ag' 'Ag' 'B2g' 'B3g' 'Ag' 'B1g'
 'B2g' 'B3g' 'Ag' 'B1g' 'Ag' 'B1g' 'B2g' 'B3g' 'Ag' 'B1u' 'B2u' 'B3u' 'Au'
 'B1u' 'B2u' 'B3u' 'B2u' 'B3u' 'B1u' 'Ag' 'B2g' 'B3g' 'Ag' 'B1g' 'B2g'
 'B3g' 'Ag' 'B1g' 'Ag' 'B2g' 'B3g' 'Ag' 'B1g' 'B1u' 'B2u' 'B3u' 'Au' 'B1u'
 'B2u' 'B3u' 'Ag' 'B1u' 'B2u' 'B3u' 'Ag' 'B2g' 'B3g' 'Ag' 'B1g' 'Ag' 'B1u'
 'B2u' 'B3u' 'Au' 'B1u' 'B2u' 'B3u' 'B1u' 'B2u' 'B3u' 'Ag' 'B2g' 'B3g'
 'Ag' 'B1g' 'Ag' 'B1u' 'B2u' 'B3u' 'Ag']
irreps of each MO ['Ag' 'Ag' 'B2u' 'B3u' 'B1u' 'Ag' 'B3u' 'B2u' 'B1u' 'B1u' 'B3u' 'B2u' 'Ag'
 'Ag' 'B3g' 'B2g' 'Ag' 'B1g' 'Ag' 'B1u' 'B3g' 'B2g' 'Ag' 'B1g' 'B3u' 'B2u'
 'B1u' 'B2u' 'B3u' 'Au' 'B1u' 'B3u' 'B2u' 'Ag' 'Ag' 'B2g' 'B3g' 'B1g' 'Ag'
 'Ag' 'B2g' 'B3g' 'B3g' 'B2g' 'B1g' 'Ag' 'Ag' 'B1g' 'B1u' 'B3u' 'B2u' 'Au'
 'B1u' 'B2u' 'B3u' 'B1u' 'B3u' 'B2u' 'Ag' 'Ag' 'B3g' 'B2g' 'Ag' 'B1g' 'Ag'
 'B3g' 'B2g' 'B3g' 'B2g' 'B1g' 'Ag' 'B1g' 'Ag' 'B1u' 'B2u' 'B3u' 'Au'
 'B1u' 'B2u' 'B3u' 'B1u' 'B2u' 'B3u' 'Ag' 'B2g' 'B3g' 'Ag' 'B1g' 'B2g'
 'B3g' 'B1g' 'Ag' 'Ag' 'B3g' 'B2g' 'B1u' 'B2u' 'B3u' 'Au' 'B1u' 'B1g' 'Ag'
 'B2u' 'B3u' 'Ag' 'B1u' 'B2u' 'B3u' 'Ag' 'B2g' 'B3g' 'B1g' 'Ag' 'Ag' 'B1u'
 'B2u' 'B3u' 'Au' 'B1u' 'B3u' 'B2u' 'B1u' 'B2u' 'B3u' 'Ag' 'B2g' 'B3g'
 'B1g' 'Ag' 'Ag' 'B1u' 'B2u' 'B3u' 'Ag']
