#INFO: **** input file is /lustre09/project/6004934/jaafar1/PySCF-MRCC/Nitrogen/AE/cation/dawCV4Z/UHF/input.py ****
import pyscf
from pyscf import cc, lib, tools, scf, symm, ao2mo
from pyscf.gto.basis import parse_gaussian
from pyscf.scf import atom_hf

name = 'out'
mol = pyscf.M(
    atom = '''
        N
    ''',
    unit = 'angstrom',
    basis = {
            'N' : parse_gaussian.load('N-d-aug-cc-pwCVQZ.gbs', 'N')
    },
    charge = +1,
    spin = 2,
    symmetry = True,
    verbose = 9,
    symmetry_subgroup = 'D2h',
    output = name +'.txt',
    max_memory = 32000,
)

original_AtomSphAverageRHF = atom_hf.AtomSphAverageRHF

class CustomAtomSphAverageRHF(original_AtomSphAverageRHF):
    def __init__(self, mol):
        super().__init__(mol)
        self.max_cycle = 9999
        self.direct_scf = False

atom_hf.AtomSphAverageRHF = CustomAtomSphAverageRHF

mf = mol.UHF().set(
    conv_tol=1e-13,
    max_cycle=9999,
    ddm_tol=1e-12,
    direct_scf=False,
    chkfile=name + '.chk',
    init_guess='atom',
    irrep_nelec={'Ag': 4, 'B3u': 1, 'B2u': 1}
)

mf.kernel()

atom_hf.AtomSphAverageRHF = original_AtomSphAverageRHF

#pyscf.tools.fcidump.from_chkfile_uhf('FCIdump',name+'.chk',tol=1e-18, float_format='% 0.20E',molpro_orbsym=False,orbsym=None)
pyscf.tools.fcidump.from_scf_uhf(mf,'fort.55',tol=1e-18, float_format='% 0.20E',molpro_orbsym=False)
#MRCCInterface.run_mrcc(mf, fort_file='fort.55', mrcc_input_file='MINP', tol=1e-18, float_format='% 0.20E', molpro_orbsym=False)
#INFO: ******************** input file end ********************


System: uname_result(system='Linux', node='rc32001', release='5.14.0-687.15.1.el9_8.x86_64', version='#1 SMP PREEMPT_DYNAMIC Thu Jun 11 08:51:45 EDT 2026', machine='x86_64')  Threads 4
Python 3.13.2 (main, Feb  5 2025, 15:06:39) [GCC 13.3.0]
numpy 2.2.2  scipy 1.15.1  h5py 3.13.0
Date: Mon Jun 22 04:54:43 2026
PySCF version 2.10.0
PySCF path  /home/jaafar1/links/projects/rrg-tzeng/jaafar1/VENV/MRCCInterface/lib/python3.13/site-packages/pyscf

[CONFIG] ARGPARSE = False
[CONFIG] DEBUG = False
[CONFIG] MAX_MEMORY = 4000
[CONFIG] TMPDIR = /tmp
[CONFIG] UNIT = angstrom
[CONFIG] VERBOSE = 3
[CONFIG] conf_file = None
[INPUT] verbose = 9
[INPUT] max_memory = 32000 
[INPUT] num. atoms = 1
[INPUT] num. electrons = 6
[INPUT] charge = 1
[INPUT] spin (= nelec alpha-beta = 2S) = 2
[INPUT] symmetry True subgroup D2h
[INPUT] Mole.unit = angstrom
[INPUT] Symbol           X                Y                Z      unit          X                Y                Z       unit  Magmom
[INPUT]  1 N      0.000000000000   0.000000000000   0.000000000000 AA    0.000000000000   0.000000000000   0.000000000000 Bohr   0.0
[INPUT] ---------------- BASIS SET ---------------- 
[INPUT] l, kappa, [nprim/nctr], expnt,             c_1 c_2 ...
[INPUT] N
[INPUT] 0    0    [1    /1   ]  54.917               1
[INPUT] 0    0    [1    /1   ]  20.735               1
[INPUT] 0    0    [12   /2   ]  45840             9.2e-05 -2e-05
                                6868              0.000717 -0.000159
                                1563              0.003749 -0.000824
                                442.4             0.015532 -0.003478
                                144.3             0.053146 -0.011966
                                52.18             0.146787 -0.035388
                                20.34             0.304663 -0.080077
                                8.381             0.397684 -0.146722
                                3.529             0.217641 -0.11636
                                1.054             0.016963 0.279919
                                0.4118            -0.002745 0.585481
                                0.1552            0.000953 0.284028
[INPUT] 0    0    [1    /1   ]  7.829                1
[INPUT] 0    0    [1    /1   ]  1.054                1
[INPUT] 0    0    [1    /1   ]  0.4118               1
[INPUT] 0    0    [1    /1   ]  0.1552               1
[INPUT] 0    0    [1    /1   ]  0.05464              1
[INPUT] 0    0    [1    /1   ]  0.0192               1
[INPUT] 1    0    [1    /1   ]  74.185               1
[INPUT] 1    0    [1    /1   ]  25.19                1
[INPUT] 1    0    [1    /1   ]  8.554                1
[INPUT] 1    0    [1    /1   ]  1.182                1
[INPUT] 1    0    [6    /1   ]  49.33             0.005533
                                11.37             0.037962
                                3.435             0.149028
                                1.182             0.348922
                                0.4173            0.458972
                                0.1428            0.244923
[INPUT] 1    0    [1    /1   ]  0.4173               1
[INPUT] 1    0    [1    /1   ]  0.1428               1
[INPUT] 1    0    [1    /1   ]  0.04402              1
[INPUT] 1    0    [1    /1   ]  0.0136               1
[INPUT] 2    0    [1    /1   ]  31.167               1
[INPUT] 2    0    [1    /1   ]  8.693                1
[INPUT] 2    0    [1    /1   ]  2.837                1
[INPUT] 2    0    [1    /1   ]  0.968                1
[INPUT] 2    0    [1    /1   ]  0.335                1
[INPUT] 2    0    [1    /1   ]  0.111                1
[INPUT] 2    0    [1    /1   ]  0.0368               1
[INPUT] 3    0    [1    /1   ]  8.972                1
[INPUT] 3    0    [1    /1   ]  2.027                1
[INPUT] 3    0    [1    /1   ]  0.685                1
[INPUT] 3    0    [1    /1   ]  0.245                1
[INPUT] 3    0    [1    /1   ]  0.0876               1
[INPUT] 4    0    [1    /1   ]  1.427                1
[INPUT] 4    0    [1    /1   ]  0.559                1
[INPUT] 4    0    [1    /1   ]  0.219                1

nuclear repulsion = 0
point group symmetry = SO3, use subgroup D2h
symmetry origin: [0. 0. 0.]
symmetry axis x: [1. 0. 0.]
symmetry axis y: [0. 1. 0.]
symmetry axis z: [0. 0. 1.]
num. orbitals of irrep Ag = 33
num. orbitals of irrep B1g = 13
num. orbitals of irrep B2g = 13
num. orbitals of irrep B3g = 13
num. orbitals of irrep Au = 5
num. orbitals of irrep B1u = 19
num. orbitals of irrep B2u = 19
num. orbitals of irrep B3u = 19
number of shells = 33
number of NR pGTOs = 159
number of NR cGTOs = 134
basis = {'N': [[0, [54.917, 1.0]], [0, [20.735, 1.0]], [0, [45840.0, 9.2e-05, -2e-05], [6868.0, 0.000717, -0.000159], [1563.0, 0.003749, -0.000824], [442.4, 0.015532, -0.003478], [144.3, 0.053146, -0.011966], [52.18, 0.146787, -0.035388], [20.34, 0.304663, -0.080077], [8.381, 0.397684, -0.146722], [3.529, 0.217641, -0.11636], [1.054, 0.016963, 0.279919], [0.4118, -0.002745, 0.585481], [0.1552, 0.000953, 0.284028]], [0, [7.829, 1.0]], [0, [1.054, 1.0]], [0, [0.4118, 1.0]], [0, [0.1552, 1.0]], [0, [0.05464, 1.0]], [0, [0.0192, 1.0]], [1, [74.185, 1.0]], [1, [25.19, 1.0]], [1, [8.554, 1.0]], [1, [1.182, 1.0]], [1, [49.33, 0.005533], [11.37, 0.037962], [3.435, 0.149028], [1.182, 0.348922], [0.4173, 0.458972], [0.1428, 0.244923]], [1, [0.4173, 1.0]], [1, [0.1428, 1.0]], [1, [0.04402, 1.0]], [1, [0.0136, 1.0]], [2, [31.167, 1.0]], [2, [8.693, 1.0]], [2, [2.837, 1.0]], [2, [0.968, 1.0]], [2, [0.335, 1.0]], [2, [0.111, 1.0]], [2, [0.0368, 1.0]], [3, [8.972, 1.0]], [3, [2.027, 1.0]], [3, [0.685, 1.0]], [3, [0.245, 1.0]], [3, [0.0876, 1.0]], [4, [1.427, 1.0]], [4, [0.559, 1.0]], [4, [0.219, 1.0]]]}
ecp = {}
bas 0, expnt(s) = [54.917]
bas 1, expnt(s) = [20.735]
bas 2, expnt(s) = [4.584e+04 6.868e+03 1.563e+03 4.424e+02 1.443e+02 5.218e+01 2.034e+01
 8.381e+00 3.529e+00 1.054e+00 4.118e-01 1.552e-01]
bas 3, expnt(s) = [7.829]
bas 4, expnt(s) = [1.054]
bas 5, expnt(s) = [0.4118]
bas 6, expnt(s) = [0.1552]
bas 7, expnt(s) = [0.05464]
bas 8, expnt(s) = [0.0192]
bas 9, expnt(s) = [74.185]
bas 10, expnt(s) = [25.19]
bas 11, expnt(s) = [8.554]
bas 12, expnt(s) = [1.182]
bas 13, expnt(s) = [49.33   11.37    3.435   1.182   0.4173  0.1428]
bas 14, expnt(s) = [0.4173]
bas 15, expnt(s) = [0.1428]
bas 16, expnt(s) = [0.04402]
bas 17, expnt(s) = [0.0136]
bas 18, expnt(s) = [31.167]
bas 19, expnt(s) = [8.693]
bas 20, expnt(s) = [2.837]
bas 21, expnt(s) = [0.968]
bas 22, expnt(s) = [0.335]
bas 23, expnt(s) = [0.111]
bas 24, expnt(s) = [0.0368]
bas 25, expnt(s) = [8.972]
bas 26, expnt(s) = [2.027]
bas 27, expnt(s) = [0.685]
bas 28, expnt(s) = [0.245]
bas 29, expnt(s) = [0.0876]
bas 30, expnt(s) = [1.427]
bas 31, expnt(s) = [0.559]
bas 32, expnt(s) = [0.219]
CPU time:         0.79
arg.atm = [[ 7 20  1 23  0  0]]
arg.bas = [[  0   0   1   1   0  24  25   0]
 [  0   0   1   1   0  26  27   0]
 [  0   0  12   2   0  28  40   0]
 [  0   0   1   1   0  64  65   0]
 [  0   0   1   1   0  66  67   0]
 [  0   0   1   1   0  68  69   0]
 [  0   0   1   1   0  70  71   0]
 [  0   0   1   1   0  72  73   0]
 [  0   0   1   1   0  74  75   0]
 [  0   1   1   1   0  76  77   0]
 [  0   1   1   1   0  78  79   0]
 [  0   1   1   1   0  80  81   0]
 [  0   1   1   1   0  82  83   0]
 [  0   1   6   1   0  84  90   0]
 [  0   1   1   1   0  96  97   0]
 [  0   1   1   1   0  98  99   0]
 [  0   1   1   1   0 100 101   0]
 [  0   1   1   1   0 102 103   0]
 [  0   2   1   1   0 104 105   0]
 [  0   2   1   1   0 106 107   0]
 [  0   2   1   1   0 108 109   0]
 [  0   2   1   1   0 110 111   0]
 [  0   2   1   1   0 112 113   0]
 [  0   2   1   1   0 114 115   0]
 [  0   2   1   1   0 116 117   0]
 [  0   3   1   1   0 118 119   0]
 [  0   3   1   1   0 120 121   0]
 [  0   3   1   1   0 122 123   0]
 [  0   3   1   1   0 124 125   0]
 [  0   3   1   1   0 126 127   0]
 [  0   4   1   1   0 128 129   0]
 [  0   4   1   1   0 130 131   0]
 [  0   4   1   1   0 132 133   0]]
arg.env = [ 0.00000000e+00  0.00000000e+00  0.00000000e+00  0.00000000e+00
  0.00000000e+00  0.00000000e+00  0.00000000e+00  0.00000000e+00
  0.00000000e+00  0.00000000e+00  0.00000000e+00  0.00000000e+00
  0.00000000e+00  0.00000000e+00  0.00000000e+00  0.00000000e+00
  0.00000000e+00  0.00000000e+00  0.00000000e+00  0.00000000e+00
  0.00000000e+00  0.00000000e+00  0.00000000e+00  0.00000000e+00
  5.49170000e+01  5.09677108e+01  2.07350000e+01  2.45495228e+01
  4.58400000e+04  6.86800000e+03  1.56300000e+03  4.42400000e+02
  1.44300000e+02  5.21800000e+01  2.03400000e+01  8.38100000e+00
  3.52900000e+00  1.05400000e+00  4.11800000e-01  1.55200000e-01
  7.28175416e-01  1.36664778e+00  2.35450384e+00  3.78532741e+00
  5.59029930e+00  7.19996490e+00  7.37220926e+00  4.94908289e+00
  1.41577482e+00  4.45807991e-02 -3.56510097e-03  5.95355564e-04
 -1.58299222e-01 -3.03064569e-01 -5.17501690e-01 -8.47629852e-01
 -1.25867635e+00 -1.73579887e+00 -1.93769908e+00 -1.82592294e+00
 -7.56933599e-01  7.35661728e-01  7.60401368e-01  1.77437443e-01
  7.82900000e+00  1.18248256e+01  1.05400000e+00  2.62812176e+00
  4.11800000e-01  1.29876262e+00  1.55200000e-01  6.24717701e-01
  5.46400000e-02  2.85527565e-01  1.92000000e-02  1.30313961e-01
  7.41850000e+01  6.35154704e+02  2.51900000e+01  1.64634027e+02
  8.55400000e+00  4.26772031e+01  1.18200000e+00  3.59547471e+00
  4.93300000e+01  1.13700000e+01  3.43500000e+00  1.18200000e+00
  4.17300000e-01  1.42800000e-01  2.11024831e+00  2.31224401e+00
  2.03310728e+00  1.25453908e+00  4.49087192e-01  6.27225673e-02
  4.17300000e-01  9.78464049e-01  1.42800000e-01  2.56091198e-01
  4.40200000e-02  5.88229689e-02  1.36000000e-02  1.35490245e-02
  3.11670000e+01  1.07274287e+03  8.69300000e+00  1.14835542e+02
  2.83700000e+00  1.61820383e+01  9.68000000e-01  2.46496786e+00
  3.35000000e-01  3.84908763e-01  1.11000000e-01  5.56986410e-02
  3.68000000e-02  8.06794760e-03  8.97200000e+00  2.74796507e+02
  2.02700000e+00  9.67010737e+00  6.85000000e-01  8.42003986e-01
  2.45000000e-01  8.32978998e-02  8.76000000e-02  8.23463968e-03
  1.42700000e+00  3.49610952e+00  5.59000000e-01  2.65644956e-01
  2.19000000e-01  2.01901906e-02]
ecpbas  = []


******** <class 'pyscf.scf.uhf_symm.SymAdaptedUHF'> ********
method = SymAdaptedUHF
initial guess = atom
damping factor = 0
level_shift factor = 0
DIIS = <class 'pyscf.scf.diis.CDIIS'>
diis_start_cycle = 1
diis_space = 8
diis_damp = 0
SCF conv_tol = 1e-13
SCF conv_tol_grad = None
SCF ddm_tol = 1e-12
SCF max_cycles = 9999
direct_scf = False
chkfile to save SCF result = out.chk
max_memory 32000 MB (current use 123 MB)
number electrons alpha = 4  beta = 2
irrep_nelec {'Ag': 4, 'B3u': 1, 'B2u': 1}
Freeze 6 electrons in irreps ['Ag', 'B3u', 'B2u']
    0 free electrons in irreps B1g B2g B3g Au B1u
cond(S) = 122841.92673466267

WARN: Singularity detected in overlap matrix (condition number = 1.23e+05). SCF may be inaccurate and hard to converge.

Set gradient conv threshold to 3.16228e-07
Spherically averaged atomic HF for {'N'}


******** <class '__main__.CustomAtomSphAverageRHF'> ********
method = CustomAtomSphAverageRHF
initial guess = minao
damping factor = 0
level_shift factor = 0
DIIS = <class 'pyscf.scf.diis.CDIIS'>
diis_start_cycle = 1
diis_space = 8
diis_damp = 0
SCF conv_tol = 1e-09
SCF conv_tol_grad = None
SCF ddm_tol = 1e-10
SCF max_cycles = 9999
direct_scf = False
chkfile to save SCF result = /tmp/tmp2yz2cpat
max_memory 32000 MB (current use 125 MB)
atom = N
Set gradient conv threshold to 3.16228e-05
Initial guess from minao.
Nelec from initial guess = 6.9999340712405385
E1 = -74.25521633887172  E_coul = 20.461216384350774
init E= -53.7939999545209
l = 0  e_0 = -15.5374816
l = 0  e_1 = -0.914506529
l = 0  e_2 = 0.0321717061
l = 0  e_3 = 0.187630249
l = 0  e_4 = 0.776758845
l = 0  e_5 = 2.89479614
l = 0  e_6 = 10.8996524
l = 0  e_7 = 37.8905955
l = 0  e_8 = 125.132703
l = 0  e_9 = 515.441522
l = 1  e_0 = -0.167759131
l = 1  e_1 = 0.032856112
l = 1  e_2 = 0.16234805
l = 1  e_3 = 0.65858553
l = 1  e_4 = 2.26550881
l = 1  e_5 = 7.21874482
l = 1  e_6 = 22.1726513
l = 1  e_7 = 70.3598238
l = 1  e_8 = 230.988143
l = 2  e_0 = 0.119790519
l = 2  e_1 = 0.426209485
l = 2  e_2 = 1.21612085
l = 2  e_3 = 3.31645313
l = 2  e_4 = 9.53399022
l = 2  e_5 = 30.0220214
l = 2  e_6 = 110.335034
l = 3  e_0 = 0.370968178
l = 3  e_1 = 1.19016874
l = 3  e_2 = 3.28577012
l = 3  e_3 = 9.22061703
l = 3  e_4 = 36.8540392
l = 4  e_0 = 1.13330598
l = 4  e_1 = 3.26743727
l = 4  e_2 = 8.50193195
    CPU time for initialize scf      1.17 sec, wall time      0.31 sec
l = 0  e_0 = -15.5374816
l = 0  e_1 = -0.914506529
l = 0  e_2 = 0.0321717061
l = 0  e_3 = 0.187630249
l = 0  e_4 = 0.776758845
l = 0  e_5 = 2.89479614
l = 0  e_6 = 10.8996524
l = 0  e_7 = 37.8905955
l = 0  e_8 = 125.132703
l = 0  e_9 = 515.441522
l = 1  e_0 = -0.167759131
l = 1  e_1 = 0.032856112
l = 1  e_2 = 0.16234805
l = 1  e_3 = 0.65858553
l = 1  e_4 = 2.26550881
l = 1  e_5 = 7.21874482
l = 1  e_6 = 22.1726513
l = 1  e_7 = 70.3598238
l = 1  e_8 = 230.988143
l = 2  e_0 = 0.119790519
l = 2  e_1 = 0.426209485
l = 2  e_2 = 1.21612085
l = 2  e_3 = 3.31645313
l = 2  e_4 = 9.53399022
l = 2  e_5 = 30.0220214
l = 2  e_6 = 110.335034
l = 3  e_0 = 0.370968178
l = 3  e_1 = 1.19016874
l = 3  e_2 = 3.28577012
l = 3  e_3 = 9.22061703
l = 3  e_4 = 36.8540392
l = 4  e_0 = 1.13330598
l = 4  e_1 = 3.26743727
l = 4  e_2 = 8.50193195
l = 0  occ = 2 + 0
l = 1  occ = 0 + 1
l = 2  occ = 0 + 0
l = 3  occ = 0 + 0
E1 = -72.59813102591413  E_coul = 18.758510452087673
cycle= 1 E= -53.8396205738265  delta_E= -0.0456  |g|=    0  |ddm|= 0.394
    CPU time for cycle= 1      0.15 sec, wall time      0.04 sec
diis-norm(errvec)=0.2866
diis-c [-0.08213935  1.        ]
l = 0  e_0 = -15.9820033
l = 0  e_1 = -1.09423384
l = 0  e_2 = 0.0287552912
l = 0  e_3 = 0.169911058
l = 0  e_4 = 0.715631434
l = 0  e_5 = 2.73191522
l = 0  e_6 = 10.5943269
l = 0  e_7 = 37.4863126
l = 0  e_8 = 124.677507
l = 0  e_9 = 514.959016
l = 1  e_0 = -0.315417197
l = 1  e_1 = 0.0320714688
l = 1  e_2 = 0.15170259
l = 1  e_3 = 0.600520271
l = 1  e_4 = 2.10838447
l = 1  e_5 = 6.9423772
l = 1  e_6 = 21.7972691
l = 1  e_7 = 69.9210208
l = 1  e_8 = 230.516952
l = 2  e_0 = 0.118385609
l = 2  e_1 = 0.408022944
l = 2  e_2 = 1.14436963
l = 2  e_3 = 3.15364367
l = 2  e_4 = 9.24928841
l = 2  e_5 = 29.6307497
l = 2  e_6 = 109.882003
l = 3  e_0 = 0.367869663
l = 3  e_1 = 1.16172317
l = 3  e_2 = 3.17956881
l = 3  e_3 = 8.97960556
l = 3  e_4 = 36.4572042
l = 4  e_0 = 1.12150567
l = 4  e_1 = 3.20423427
l = 4  e_2 = 8.32397902
l = 0  occ = 2 + 0
l = 1  occ = 0 + 1
l = 2  occ = 0 + 0
l = 3  occ = 0 + 0
E1 = -73.47197982652875  E_coul = 19.623314149922017
cycle= 2 E= -53.8486656766067  delta_E= -0.00905  |g|=    0  |ddm|= 0.174
    CPU time for cycle= 2      0.16 sec, wall time      0.04 sec
diis-norm(errvec)=0.124556
diis-c [-0.00080714  0.29836278  0.70163722]
l = 0  e_0 = -15.8171867
l = 0  e_1 = -1.034623
l = 0  e_2 = 0.0299904312
l = 0  e_3 = 0.175698881
l = 0  e_4 = 0.735342248
l = 0  e_5 = 2.78769022
l = 0  e_6 = 10.7041356
l = 0  e_7 = 37.635072
l = 0  e_8 = 124.84824
l = 0  e_9 = 515.143283
l = 1  e_0 = -0.261477853
l = 1  e_1 = 0.032418223
l = 1  e_2 = 0.156082475
l = 1  e_3 = 0.622110589
l = 1  e_4 = 2.16506442
l = 1  e_5 = 7.04274997
l = 1  e_6 = 21.934692
l = 1  e_7 = 70.0837328
l = 1  e_8 = 230.695031
l = 2  e_0 = 0.11889803
l = 2  e_1 = 0.414270619
l = 2  e_2 = 1.16958627
l = 2  e_3 = 3.21171941
l = 2  e_4 = 9.35247169
l = 2  e_5 = 29.7741915
l = 2  e_6 = 110.050693
l = 3  e_0 = 0.368961626
l = 3  e_1 = 1.17138432
l = 3  e_2 = 3.21668702
l = 3  e_3 = 9.06626391
l = 3  e_4 = 36.6024704
l = 4  e_0 = 1.12552171
l = 4  e_1 = 3.22582787
l = 4  e_2 = 8.38706108
l = 0  occ = 2 + 0
l = 1  occ = 0 + 1
l = 2  occ = 0 + 0
l = 3  occ = 0 + 0
E1 = -73.17212872303664  E_coul = 19.32056971793148
cycle= 3 E= -53.8515590051052  delta_E= -0.00289  |g|=    0  |ddm|= 0.0727
    CPU time for cycle= 3      0.16 sec, wall time      0.04 sec
diis-norm(errvec)=0.0121138
diis-c [-3.84519152e-06 -1.00448639e-01 -1.27530922e-01  1.22797956e+00]
l = 0  e_0 = -15.8233318
l = 0  e_1 = -1.03844956
l = 0  e_2 = 0.0299543141
l = 0  e_3 = 0.175386243
l = 0  e_4 = 0.734289212
l = 0  e_5 = 2.78530274
l = 0  e_6 = 10.6999251
l = 0  e_7 = 37.6294806
l = 0  e_8 = 124.842357
l = 0  e_9 = 515.138061
l = 1  e_0 = -0.263036436
l = 1  e_1 = 0.0324229059
l = 1  e_2 = 0.156065131
l = 1  e_3 = 0.621659103
l = 1  e_4 = 2.16344109
l = 1  e_5 = 7.03931568
l = 1  e_6 = 21.9295617
l = 1  e_7 = 70.0777143
l = 1  e_8 = 230.689262
l = 2  e_0 = 0.118900331
l = 2  e_1 = 0.414084646
l = 2  e_2 = 1.16884423
l = 2  e_3 = 3.20991269
l = 2  e_4 = 9.34895783
l = 2  e_5 = 29.7687796
l = 2  e_6 = 110.044491
l = 3  e_0 = 0.368960334
l = 3  e_1 = 1.17112262
l = 3  e_2 = 3.21558385
l = 3  e_3 = 9.06345191
l = 3  e_4 = 36.5969384
l = 4  e_0 = 1.12545174
l = 4  e_1 = 3.22520187
l = 4  e_2 = 8.38512415
l = 0  occ = 2 + 0
l = 1  occ = 0 + 1
l = 2  occ = 0 + 0
l = 3  occ = 0 + 0
E1 = -73.18484050488016  E_coul = 19.333262890867147
cycle= 4 E= -53.851577614013  delta_E= -1.86e-05  |g|=    0  |ddm|= 0.00848
    CPU time for cycle= 4      0.16 sec, wall time      0.04 sec
diis-norm(errvec)=0.00108503
diis-c [-4.67849875e-08 -5.04943038e-03 -3.26559051e-03 -1.59738595e-04
  1.00847476e+00]
l = 0  e_0 = -15.8241532
l = 0  e_1 = -1.03894907
l = 0  e_2 = 0.029928324
l = 0  e_3 = 0.175286719
l = 0  e_4 = 0.734035369
l = 0  e_5 = 2.78479803
l = 0  e_6 = 10.6992
l = 0  e_7 = 37.6286772
l = 0  e_8 = 124.841574
l = 0  e_9 = 515.137357
l = 1  e_0 = -0.263377315
l = 1  e_1 = 0.0324174159
l = 1  e_2 = 0.15600553
l = 1  e_3 = 0.621428822
l = 1  e_4 = 2.16297799
l = 1  e_5 = 7.03864714
l = 1  e_6 = 21.9287757
l = 1  e_7 = 70.0769047
l = 1  e_8 = 230.688503
l = 2  e_0 = 0.118887849
l = 2  e_1 = 0.413988477
l = 2  e_2 = 1.16857613
l = 2  e_3 = 3.20941265
l = 2  e_4 = 9.3482541
l = 2  e_5 = 29.7679689
l = 2  e_6 = 110.04368
l = 3  e_0 = 0.368933186
l = 3  e_1 = 1.17096996
l = 3  e_2 = 3.21518905
l = 3  e_3 = 9.06279619
l = 3  e_4 = 36.5961114
l = 4  e_0 = 1.12536792
l = 4  e_1 = 3.2249123
l = 4  e_2 = 8.38456315
l = 0  occ = 2 + 0
l = 1  occ = 0 + 1
l = 2  occ = 0 + 0
l = 3  occ = 0 + 0
E1 = -73.1868834766988  E_coul = 19.335305678593926
cycle= 5 E= -53.8515777981049  delta_E= -1.84e-07  |g|=    0  |ddm|= 0.000747
    CPU time for cycle= 5      0.16 sec, wall time      0.04 sec
diis-norm(errvec)=3.71834e-05
diis-c [-2.93585913e-10  7.15094876e-04  1.96854936e-04 -1.10454416e-03
 -1.50885784e-01  1.15107838e+00]
l = 0  e_0 = -15.8241396
l = 0  e_1 = -1.03895093
l = 0  e_2 = 0.0299261869
l = 0  e_3 = 0.175281775
l = 0  e_4 = 0.734028562
l = 0  e_5 = 2.78479373
l = 0  e_6 = 10.6992057
l = 0  e_7 = 37.6286885
l = 0  e_8 = 124.841585
l = 0  e_9 = 515.137364
l = 1  e_0 = -0.263375036
l = 1  e_1 = 0.0324171357
l = 1  e_2 = 0.156002844
l = 1  e_3 = 0.621422478
l = 1  e_4 = 2.16297396
l = 1  e_5 = 7.03865016
l = 1  e_6 = 21.9287856
l = 1  e_7 = 70.0769168
l = 1  e_8 = 230.688512
l = 2  e_0 = 0.118886558
l = 2  e_1 = 0.413983547
l = 2  e_2 = 1.16857007
l = 2  e_3 = 3.2094084
l = 2  e_4 = 9.34825882
l = 2  e_5 = 29.7679807
l = 2  e_6 = 110.043692
l = 3  e_0 = 0.368930605
l = 3  e_1 = 1.17096234
l = 3  e_2 = 3.21518111
l = 3  e_3 = 9.06279753
l = 3  e_4 = 36.5961243
l = 4  e_0 = 1.12536167
l = 4  e_1 = 3.22490208
l = 4  e_2 = 8.38455925
l = 0  occ = 2 + 0
l = 1  occ = 0 + 1
l = 2  occ = 0 + 0
l = 3  occ = 0 + 0
E1 = -73.18684809821757  E_coul = 19.335270299579065
cycle= 6 E= -53.8515777986385  delta_E= -5.34e-10  |g|=    0  |ddm|= 3.68e-05
    CPU time for cycle= 6      0.16 sec, wall time      0.04 sec
diis-norm(errvec)=1.86037e-06
diis-c [-8.09138820e-13 -1.02782111e-05  2.73423036e-05 -2.55160254e-04
  8.05003360e-03 -8.96953929e-02  1.08188346e+00]
l = 0  e_0 = -15.8241399
l = 0  e_1 = -1.03895164
l = 0  e_2 = 0.0299261083
l = 0  e_3 = 0.175281722
l = 0  e_4 = 0.734028613
l = 0  e_5 = 2.78479372
l = 0  e_6 = 10.6992055
l = 0  e_7 = 37.6286882
l = 0  e_8 = 124.841585
l = 0  e_9 = 515.137364
l = 1  e_0 = -0.263375409
l = 1  e_1 = 0.0324171393
l = 1  e_2 = 0.156002846
l = 1  e_3 = 0.621422461
l = 1  e_4 = 2.16297388
l = 1  e_5 = 7.03864998
l = 1  e_6 = 21.9287854
l = 1  e_7 = 70.0769166
l = 1  e_8 = 230.688513
l = 2  e_0 = 0.118886498
l = 2  e_1 = 0.413983408
l = 2  e_2 = 1.16856994
l = 2  e_3 = 3.20940829
l = 2  e_4 = 9.34825865
l = 2  e_5 = 29.7679804
l = 2  e_6 = 110.043692
l = 3  e_0 = 0.368930501
l = 3  e_1 = 1.17096216
l = 3  e_2 = 3.215181
l = 3  e_3 = 9.06279744
l = 3  e_4 = 36.5961239
l = 4  e_0 = 1.12536146
l = 4  e_1 = 3.22490191
l = 4  e_2 = 8.38455921
l = 0  occ = 2 + 0
l = 1  occ = 0 + 1
l = 2  occ = 0 + 0
l = 3  occ = 0 + 0
E1 = -73.1868453770795  E_coul = 19.33526757843851
cycle= 7 E= -53.851577798641  delta_E= -2.49e-12  |g|=    0  |ddm|= 5.56e-06
    CPU time for cycle= 7      0.16 sec, wall time      0.04 sec
diis-norm(errvec)=1.73695e-07
diis-c [-4.74821207e-15  8.15622239e-07 -1.68407852e-06  2.59905348e-05
 -7.82186083e-04  7.18488782e-03 -1.06335118e-01  1.09990729e+00]
l = 0  e_0 = -15.82414
l = 0  e_1 = -1.03895174
l = 0  e_2 = 0.0299260972
l = 0  e_3 = 0.175281699
l = 0  e_4 = 0.734028562
l = 0  e_5 = 2.78479362
l = 0  e_6 = 10.6992054
l = 0  e_7 = 37.6286881
l = 0  e_8 = 124.841584
l = 0  e_9 = 515.137364
l = 1  e_0 = -0.263375493
l = 1  e_1 = 0.0324171379
l = 1  e_2 = 0.156002832
l = 1  e_3 = 0.621422409
l = 1  e_4 = 2.16297379
l = 1  e_5 = 7.03864986
l = 1  e_6 = 21.9287852
l = 1  e_7 = 70.0769165
l = 1  e_8 = 230.688512
l = 2  e_0 = 0.118886491
l = 2  e_1 = 0.41398338
l = 2  e_2 = 1.16856988
l = 2  e_3 = 3.20940818
l = 2  e_4 = 9.34825852
l = 2  e_5 = 29.7679802
l = 2  e_6 = 110.043692
l = 3  e_0 = 0.368930489
l = 3  e_1 = 1.17096212
l = 3  e_2 = 3.21518091
l = 3  e_3 = 9.06279731
l = 3  e_4 = 36.5961238
l = 4  e_0 = 1.12536143
l = 4  e_1 = 3.22490184
l = 4  e_2 = 8.3845591
l = 0  occ = 2 + 0
l = 1  occ = 0 + 1
l = 2  occ = 0 + 0
l = 3  occ = 0 + 0
E1 = -73.1868455336445  E_coul = 19.335267735003637
cycle= 8 E= -53.8515777986409  delta_E= 1.35e-13  |g|=    0  |ddm|= 1.55e-07
    CPU time for cycle= 8      0.16 sec, wall time      0.04 sec
diis-norm(errvec)=1.36221e-08
Linear dependence found in DIIS error vectors.
diis-c [-1.33103051e-15  4.29769293e-07 -8.61599309e-07  1.29392531e-05
 -3.95650115e-04  3.68907753e-03 -5.27810741e-02  4.97739794e-01
  5.51735345e-01]
l = 0  e_0 = -15.82414
l = 0  e_1 = -1.03895174
l = 0  e_2 = 0.0299260969
l = 0  e_3 = 0.175281699
l = 0  e_4 = 0.734028561
l = 0  e_5 = 2.78479362
l = 0  e_6 = 10.6992054
l = 0  e_7 = 37.6286881
l = 0  e_8 = 124.841584
l = 0  e_9 = 515.137364
l = 1  e_0 = -0.263375495
l = 1  e_1 = 0.0324171378
l = 1  e_2 = 0.156002832
l = 1  e_3 = 0.621422408
l = 1  e_4 = 2.16297379
l = 1  e_5 = 7.03864986
l = 1  e_6 = 21.9287852
l = 1  e_7 = 70.0769165
l = 1  e_8 = 230.688512
l = 2  e_0 = 0.118886491
l = 2  e_1 = 0.413983379
l = 2  e_2 = 1.16856988
l = 2  e_3 = 3.20940818
l = 2  e_4 = 9.34825851
l = 2  e_5 = 29.7679802
l = 2  e_6 = 110.043692
l = 3  e_0 = 0.368930488
l = 3  e_1 = 1.17096211
l = 3  e_2 = 3.21518091
l = 3  e_3 = 9.06279731
l = 3  e_4 = 36.5961238
l = 4  e_0 = 1.12536143
l = 4  e_1 = 3.22490184
l = 4  e_2 = 8.3845591
l = 0  occ = 2 + 0
l = 1  occ = 0 + 1
l = 2  occ = 0 + 0
l = 3  occ = 0 + 0
E1 = -73.18684553696099  E_coul = 19.33526773832008
cycle= 9 E= -53.8515777986409  delta_E= -4.26e-14  |g|=    0  |ddm|= 7.03e-09
    CPU time for cycle= 9      0.16 sec, wall time      0.04 sec
diis-norm(errvec)=7.0871e-09
Linear dependence found in DIIS error vectors.
diis-c [-6.65320646e-16  3.56283775e-01 -8.09664933e-07  1.03913100e-05
 -2.32659510e-04  2.25985792e-03 -3.44048331e-02  3.20829361e-01
  3.55254917e-01]
l = 0  e_0 = -15.82414
l = 0  e_1 = -1.03895174
l = 0  e_2 = 0.0299260968
l = 0  e_3 = 0.175281699
l = 0  e_4 = 0.734028561
l = 0  e_5 = 2.78479362
l = 0  e_6 = 10.6992054
l = 0  e_7 = 37.6286881
l = 0  e_8 = 124.841584
l = 0  e_9 = 515.137364
l = 1  e_0 = -0.263375496
l = 1  e_1 = 0.0324171378
l = 1  e_2 = 0.156002832
l = 1  e_3 = 0.621422408
l = 1  e_4 = 2.16297378
l = 1  e_5 = 7.03864985
l = 1  e_6 = 21.9287852
l = 1  e_7 = 70.0769165
l = 1  e_8 = 230.688512
l = 2  e_0 = 0.118886491
l = 2  e_1 = 0.413983379
l = 2  e_2 = 1.16856988
l = 2  e_3 = 3.20940818
l = 2  e_4 = 9.34825851
l = 2  e_5 = 29.7679802
l = 2  e_6 = 110.043692
l = 3  e_0 = 0.368930488
l = 3  e_1 = 1.17096211
l = 3  e_2 = 3.21518091
l = 3  e_3 = 9.06279731
l = 3  e_4 = 36.5961238
l = 4  e_0 = 1.12536143
l = 4  e_1 = 3.22490184
l = 4  e_2 = 8.3845591
l = 0  occ = 2 + 0
l = 1  occ = 0 + 1
l = 2  occ = 0 + 0
l = 3  occ = 0 + 0
E1 = -73.18684553512914  E_coul = 19.33526773648822
cycle= 10 E= -53.8515777986409  delta_E= -1.42e-14  |g|=    0  |ddm|= 1.58e-09
    CPU time for cycle= 10      0.16 sec, wall time      0.04 sec
diis-norm(errvec)=5.86004e-09
Linear dependence found in DIIS error vectors.
diis-c [-5.49650908e-16  2.58214340e-01  2.58351104e-01  2.53108406e-06
 -5.92206339e-05  6.25148911e-04 -1.66355454e-02  2.41661348e-01
  2.57840295e-01]
l = 0  e_0 = -15.82414
l = 0  e_1 = -1.03895174
l = 0  e_2 = 0.0299260968
l = 0  e_3 = 0.175281699
l = 0  e_4 = 0.734028561
l = 0  e_5 = 2.78479362
l = 0  e_6 = 10.6992054
l = 0  e_7 = 37.6286881
l = 0  e_8 = 124.841584
l = 0  e_9 = 515.137364
l = 1  e_0 = -0.263375496
l = 1  e_1 = 0.0324171378
l = 1  e_2 = 0.156002832
l = 1  e_3 = 0.621422407
l = 1  e_4 = 2.16297378
l = 1  e_5 = 7.03864985
l = 1  e_6 = 21.9287852
l = 1  e_7 = 70.0769165
l = 1  e_8 = 230.688512
l = 2  e_0 = 0.118886491
l = 2  e_1 = 0.413983378
l = 2  e_2 = 1.16856988
l = 2  e_3 = 3.20940818
l = 2  e_4 = 9.34825851
l = 2  e_5 = 29.7679802
l = 2  e_6 = 110.043692
l = 3  e_0 = 0.368930488
l = 3  e_1 = 1.17096211
l = 3  e_2 = 3.21518091
l = 3  e_3 = 9.06279731
l = 3  e_4 = 36.5961238
l = 4  e_0 = 1.12536143
l = 4  e_1 = 3.22490184
l = 4  e_2 = 8.3845591
l = 0  occ = 2 + 0
l = 1  occ = 0 + 1
l = 2  occ = 0 + 0
l = 3  occ = 0 + 0
E1 = -73.18684553722058  E_coul = 19.335267738579585
cycle= 11 E= -53.851577798641  delta_E= -7.11e-14  |g|=    0  |ddm|= 2.29e-09
    CPU time for cycle= 11      0.16 sec, wall time      0.04 sec
diis-norm(errvec)=5.12934e-09
Linear dependence found in DIIS error vectors.
diis-c [-4.31863812e-16  2.05156165e-01  2.05264810e-01  2.05230469e-01
 -2.64578937e-05  4.76504295e-04 -1.31989759e-02  1.92234796e-01
  2.04862688e-01]
l = 0  e_0 = -15.82414
l = 0  e_1 = -1.03895174
l = 0  e_2 = 0.0299260967
l = 0  e_3 = 0.175281698
l = 0  e_4 = 0.73402856
l = 0  e_5 = 2.78479362
l = 0  e_6 = 10.6992054
l = 0  e_7 = 37.6286881
l = 0  e_8 = 124.841584
l = 0  e_9 = 515.137364
l = 1  e_0 = -0.263375498
l = 1  e_1 = 0.0324171378
l = 1  e_2 = 0.156002831
l = 1  e_3 = 0.621422407
l = 1  e_4 = 2.16297378
l = 1  e_5 = 7.03864985
l = 1  e_6 = 21.9287852
l = 1  e_7 = 70.0769165
l = 1  e_8 = 230.688512
l = 2  e_0 = 0.118886491
l = 2  e_1 = 0.413983378
l = 2  e_2 = 1.16856988
l = 2  e_3 = 3.20940818
l = 2  e_4 = 9.34825851
l = 2  e_5 = 29.7679802
l = 2  e_6 = 110.043692
l = 3  e_0 = 0.368930488
l = 3  e_1 = 1.17096211
l = 3  e_2 = 3.21518091
l = 3  e_3 = 9.06279731
l = 3  e_4 = 36.5961238
l = 4  e_0 = 1.12536143
l = 4  e_1 = 3.22490184
l = 4  e_2 = 8.3845591
l = 0  occ = 2 + 0
l = 1  occ = 0 + 1
l = 2  occ = 0 + 0
l = 3  occ = 0 + 0
E1 = -73.18684554560976  E_coul = 19.335267746968764
cycle= 12 E= -53.851577798641  delta_E=    0  |g|=    0  |ddm|= 4.2e-09
    CPU time for cycle= 12      0.16 sec, wall time      0.04 sec
diis-norm(errvec)=3.81738e-09
Linear dependence found in DIIS error vectors.
diis-c [ 4.27953340e-17  2.06844215e-01  2.07812184e-01  2.09196487e-01
  2.16104328e-01  6.37249015e-06  1.02286757e-03 -3.89620560e-02
  1.97975602e-01]
l = 0  e_0 = -15.82414
l = 0  e_1 = -1.03895174
l = 0  e_2 = 0.0299260966
l = 0  e_3 = 0.175281698
l = 0  e_4 = 0.73402856
l = 0  e_5 = 2.78479362
l = 0  e_6 = 10.6992054
l = 0  e_7 = 37.6286881
l = 0  e_8 = 124.841584
l = 0  e_9 = 515.137364
l = 1  e_0 = -0.263375498
l = 1  e_1 = 0.0324171378
l = 1  e_2 = 0.156002831
l = 1  e_3 = 0.621422407
l = 1  e_4 = 2.16297378
l = 1  e_5 = 7.03864985
l = 1  e_6 = 21.9287852
l = 1  e_7 = 70.0769165
l = 1  e_8 = 230.688512
l = 2  e_0 = 0.118886491
l = 2  e_1 = 0.413983378
l = 2  e_2 = 1.16856988
l = 2  e_3 = 3.20940818
l = 2  e_4 = 9.34825851
l = 2  e_5 = 29.7679802
l = 2  e_6 = 110.043692
l = 3  e_0 = 0.368930488
l = 3  e_1 = 1.17096211
l = 3  e_2 = 3.21518091
l = 3  e_3 = 9.06279731
l = 3  e_4 = 36.5961238
l = 4  e_0 = 1.12536143
l = 4  e_1 = 3.22490184
l = 4  e_2 = 8.3845591
l = 0  occ = 2 + 0
l = 1  occ = 0 + 1
l = 2  occ = 0 + 0
l = 3  occ = 0 + 0
E1 = -73.18684553814697  E_coul = 19.335267739506012
cycle= 13 E= -53.851577798641  delta_E= 2.84e-14  |g|=    0  |ddm|= 2.4e-09
    CPU time for cycle= 13      0.16 sec, wall time      0.04 sec
diis-norm(errvec)=1.39046e-09
Linear dependence found in DIIS error vectors.
diis-c [-8.01727328e-17  1.70718623e-01  1.71916246e-01  1.72903981e-01
  1.78356090e-01  1.77598555e-01  1.09211304e-03 -3.54037096e-02
  1.62818101e-01]
l = 0  e_0 = -15.82414
l = 0  e_1 = -1.03895174
l = 0  e_2 = 0.0299260966
l = 0  e_3 = 0.175281698
l = 0  e_4 = 0.73402856
l = 0  e_5 = 2.78479362
l = 0  e_6 = 10.6992054
l = 0  e_7 = 37.6286881
l = 0  e_8 = 124.841584
l = 0  e_9 = 515.137364
l = 1  e_0 = -0.263375498
l = 1  e_1 = 0.0324171378
l = 1  e_2 = 0.156002831
l = 1  e_3 = 0.621422407
l = 1  e_4 = 2.16297378
l = 1  e_5 = 7.03864985
l = 1  e_6 = 21.9287852
l = 1  e_7 = 70.0769165
l = 1  e_8 = 230.688512
l = 2  e_0 = 0.118886491
l = 2  e_1 = 0.413983378
l = 2  e_2 = 1.16856988
l = 2  e_3 = 3.20940818
l = 2  e_4 = 9.34825851
l = 2  e_5 = 29.7679802
l = 2  e_6 = 110.043692
l = 3  e_0 = 0.368930488
l = 3  e_1 = 1.17096211
l = 3  e_2 = 3.21518091
l = 3  e_3 = 9.06279731
l = 3  e_4 = 36.5961238
l = 4  e_0 = 1.12536143
l = 4  e_1 = 3.22490184
l = 4  e_2 = 8.3845591
l = 0  occ = 2 + 0
l = 1  occ = 0 + 1
l = 2  occ = 0 + 0
l = 3  occ = 0 + 0
E1 = -73.18684553830535  E_coul = 19.33526773966441
cycle= 14 E= -53.8515777986409  delta_E= 2.13e-14  |g|=    0  |ddm|= 2.23e-10
    CPU time for cycle= 14      0.16 sec, wall time      0.04 sec
diis-norm(errvec)=1.25699e-09
Linear dependence found in DIIS error vectors.
diis-c [ 2.55957072e-16  1.44479322e-01  1.45404260e-01  1.46121088e-01
  1.50120904e-01  1.49722968e-01  1.49852934e-01 -2.41595658e-02
  1.38458089e-01]
l = 0  e_0 = -15.82414
l = 0  e_1 = -1.03895174
l = 0  e_2 = 0.0299260965
l = 0  e_3 = 0.175281698
l = 0  e_4 = 0.734028559
l = 0  e_5 = 2.78479362
l = 0  e_6 = 10.6992054
l = 0  e_7 = 37.6286881
l = 0  e_8 = 124.841584
l = 0  e_9 = 515.137364
l = 1  e_0 = -0.263375498
l = 1  e_1 = 0.0324171378
l = 1  e_2 = 0.156002831
l = 1  e_3 = 0.621422406
l = 1  e_4 = 2.16297378
l = 1  e_5 = 7.03864985
l = 1  e_6 = 21.9287852
l = 1  e_7 = 70.0769165
l = 1  e_8 = 230.688512
l = 2  e_0 = 0.118886491
l = 2  e_1 = 0.413983378
l = 2  e_2 = 1.16856988
l = 2  e_3 = 3.20940818
l = 2  e_4 = 9.34825851
l = 2  e_5 = 29.7679802
l = 2  e_6 = 110.043692
l = 3  e_0 = 0.368930488
l = 3  e_1 = 1.17096211
l = 3  e_2 = 3.21518091
l = 3  e_3 = 9.06279731
l = 3  e_4 = 36.5961238
l = 4  e_0 = 1.12536143
l = 4  e_1 = 3.22490184
l = 4  e_2 = 8.3845591
l = 0  occ = 2 + 0
l = 1  occ = 0 + 1
l = 2  occ = 0 + 0
l = 3  occ = 0 + 0
E1 = -73.18684554030688  E_coul = 19.33526774166595
cycle= 15 E= -53.8515777986409  delta_E= 1.42e-14  |g|=    0  |ddm|= 4.32e-10
    CPU time for cycle= 15      0.16 sec, wall time      0.04 sec
diis-norm(errvec)=4.86085e-10
Linear dependence found in DIIS error vectors.
diis-c [-2.89052492e-16  1.25000000e-01  1.25000000e-01  1.25000000e-01
  1.25000000e-01  1.25000000e-01  1.25000000e-01  1.25000000e-01
  1.25000000e-01]
l = 0  e_0 = -15.82414
l = 0  e_1 = -1.03895174
l = 0  e_2 = 0.0299260966
l = 0  e_3 = 0.175281698
l = 0  e_4 = 0.734028559
l = 0  e_5 = 2.78479361
l = 0  e_6 = 10.6992054
l = 0  e_7 = 37.6286881
l = 0  e_8 = 124.841584
l = 0  e_9 = 515.137364
l = 1  e_0 = -0.263375498
l = 1  e_1 = 0.0324171378
l = 1  e_2 = 0.156002831
l = 1  e_3 = 0.621422406
l = 1  e_4 = 2.16297378
l = 1  e_5 = 7.03864985
l = 1  e_6 = 21.9287852
l = 1  e_7 = 70.0769165
l = 1  e_8 = 230.688512
l = 2  e_0 = 0.118886491
l = 2  e_1 = 0.413983378
l = 2  e_2 = 1.16856988
l = 2  e_3 = 3.20940818
l = 2  e_4 = 9.34825851
l = 2  e_5 = 29.7679802
l = 2  e_6 = 110.043692
l = 3  e_0 = 0.368930488
l = 3  e_1 = 1.17096211
l = 3  e_2 = 3.21518091
l = 3  e_3 = 9.0627973
l = 3  e_4 = 36.5961238
l = 4  e_0 = 1.12536143
l = 4  e_1 = 3.22490184
l = 4  e_2 = 8.3845591
l = 0  occ = 2 + 0
l = 1  occ = 0 + 1
l = 2  occ = 0 + 0
l = 3  occ = 0 + 0
E1 = -73.18684554318759  E_coul = 19.335267744546563
cycle= 16 E= -53.851577798641  delta_E= -9.95e-14  |g|=    0  |ddm|= 5.87e-10
    CPU time for cycle= 16      0.16 sec, wall time      0.04 sec
diis-norm(errvec)=1.04085e-09
Linear dependence found in DIIS error vectors.
diis-c [-2.89052492e-16  1.25000000e-01  1.25000000e-01  1.25000000e-01
  1.25000000e-01  1.25000000e-01  1.25000000e-01  1.25000000e-01
  1.25000000e-01]
l = 0  e_0 = -15.82414
l = 0  e_1 = -1.03895174
l = 0  e_2 = 0.0299260966
l = 0  e_3 = 0.175281698
l = 0  e_4 = 0.734028559
l = 0  e_5 = 2.78479361
l = 0  e_6 = 10.6992054
l = 0  e_7 = 37.6286881
l = 0  e_8 = 124.841584
l = 0  e_9 = 515.137364
l = 1  e_0 = -0.263375498
l = 1  e_1 = 0.0324171378
l = 1  e_2 = 0.156002831
l = 1  e_3 = 0.621422406
l = 1  e_4 = 2.16297378
l = 1  e_5 = 7.03864985
l = 1  e_6 = 21.9287852
l = 1  e_7 = 70.0769165
l = 1  e_8 = 230.688512
l = 2  e_0 = 0.118886491
l = 2  e_1 = 0.413983378
l = 2  e_2 = 1.16856988
l = 2  e_3 = 3.20940818
l = 2  e_4 = 9.34825851
l = 2  e_5 = 29.7679802
l = 2  e_6 = 110.043692
l = 3  e_0 = 0.368930488
l = 3  e_1 = 1.17096211
l = 3  e_2 = 3.21518091
l = 3  e_3 = 9.0627973
l = 3  e_4 = 36.5961238
l = 4  e_0 = 1.12536143
l = 4  e_1 = 3.22490184
l = 4  e_2 = 8.3845591
l = 0  occ = 2 + 0
l = 1  occ = 0 + 1
l = 2  occ = 0 + 0
l = 3  occ = 0 + 0
E1 = -73.1868455421553  E_coul = 19.335267743514354
cycle= 17 E= -53.8515777986409  delta_E= 7.82e-14  |g|=    0  |ddm|= 2.43e-10
    CPU time for cycle= 17      0.16 sec, wall time      0.04 sec
diis-norm(errvec)=6.24667e-10
Linear dependence found in DIIS error vectors.
diis-c [-2.89052492e-16  1.25000000e-01  1.25000000e-01  1.25000000e-01
  1.25000000e-01  1.25000000e-01  1.25000000e-01  1.25000000e-01
  1.25000000e-01]
l = 0  e_0 = -15.82414
l = 0  e_1 = -1.03895174
l = 0  e_2 = 0.0299260966
l = 0  e_3 = 0.175281698
l = 0  e_4 = 0.734028559
l = 0  e_5 = 2.78479361
l = 0  e_6 = 10.6992054
l = 0  e_7 = 37.6286881
l = 0  e_8 = 124.841584
l = 0  e_9 = 515.137364
l = 1  e_0 = -0.263375498
l = 1  e_1 = 0.0324171378
l = 1  e_2 = 0.156002831
l = 1  e_3 = 0.621422406
l = 1  e_4 = 2.16297378
l = 1  e_5 = 7.03864985
l = 1  e_6 = 21.9287852
l = 1  e_7 = 70.0769165
l = 1  e_8 = 230.688512
l = 2  e_0 = 0.118886491
l = 2  e_1 = 0.413983378
l = 2  e_2 = 1.16856988
l = 2  e_3 = 3.20940818
l = 2  e_4 = 9.34825851
l = 2  e_5 = 29.7679802
l = 2  e_6 = 110.043692
l = 3  e_0 = 0.368930488
l = 3  e_1 = 1.17096211
l = 3  e_2 = 3.21518091
l = 3  e_3 = 9.06279731
l = 3  e_4 = 36.5961238
l = 4  e_0 = 1.12536143
l = 4  e_1 = 3.22490184
l = 4  e_2 = 8.3845591
l = 0  occ = 2 + 0
l = 1  occ = 0 + 1
l = 2  occ = 0 + 0
l = 3  occ = 0 + 0
E1 = -73.18684554161138  E_coul = 19.33526774297038
cycle= 18 E= -53.851577798641  delta_E= -4.97e-14  |g|=    0  |ddm|= 1.23e-10
    CPU time for cycle= 18      0.16 sec, wall time      0.04 sec
diis-norm(errvec)=4.0973e-10
Linear dependence found in DIIS error vectors.
diis-c [-2.89052492e-16  1.25000000e-01  1.25000000e-01  1.25000000e-01
  1.25000000e-01  1.25000000e-01  1.25000000e-01  1.25000000e-01
  1.25000000e-01]
l = 0  e_0 = -15.82414
l = 0  e_1 = -1.03895174
l = 0  e_2 = 0.0299260966
l = 0  e_3 = 0.175281698
l = 0  e_4 = 0.734028559
l = 0  e_5 = 2.78479361
l = 0  e_6 = 10.6992054
l = 0  e_7 = 37.6286881
l = 0  e_8 = 124.841584
l = 0  e_9 = 515.137364
l = 1  e_0 = -0.263375498
l = 1  e_1 = 0.0324171378
l = 1  e_2 = 0.156002831
l = 1  e_3 = 0.621422406
l = 1  e_4 = 2.16297378
l = 1  e_5 = 7.03864985
l = 1  e_6 = 21.9287852
l = 1  e_7 = 70.0769165
l = 1  e_8 = 230.688512
l = 2  e_0 = 0.118886491
l = 2  e_1 = 0.413983378
l = 2  e_2 = 1.16856988
l = 2  e_3 = 3.20940818
l = 2  e_4 = 9.34825851
l = 2  e_5 = 29.7679802
l = 2  e_6 = 110.043692
l = 3  e_0 = 0.368930488
l = 3  e_1 = 1.17096211
l = 3  e_2 = 3.21518091
l = 3  e_3 = 9.06279731
l = 3  e_4 = 36.5961238
l = 4  e_0 = 1.12536143
l = 4  e_1 = 3.22490184
l = 4  e_2 = 8.3845591
l = 0  occ = 2 + 0
l = 1  occ = 0 + 1
l = 2  occ = 0 + 0
l = 3  occ = 0 + 0
E1 = -73.1868455410475  E_coul = 19.335267742406472
cycle= 19 E= -53.851577798641  delta_E= -3.55e-14  |g|=    0  |ddm|= 1.21e-10
    CPU time for cycle= 19      0.16 sec, wall time      0.04 sec
diis-norm(errvec)=2.33127e-10
Linear dependence found in DIIS error vectors.
diis-c [-2.89052492e-16  1.25000000e-01  1.25000000e-01  1.25000000e-01
  1.25000000e-01  1.25000000e-01  1.25000000e-01  1.25000000e-01
  1.25000000e-01]
l = 0  e_0 = -15.82414
l = 0  e_1 = -1.03895174
l = 0  e_2 = 0.0299260966
l = 0  e_3 = 0.175281698
l = 0  e_4 = 0.734028559
l = 0  e_5 = 2.78479361
l = 0  e_6 = 10.6992054
l = 0  e_7 = 37.6286881
l = 0  e_8 = 124.841584
l = 0  e_9 = 515.137364
l = 1  e_0 = -0.263375498
l = 1  e_1 = 0.0324171378
l = 1  e_2 = 0.156002831
l = 1  e_3 = 0.621422406
l = 1  e_4 = 2.16297378
l = 1  e_5 = 7.03864985
l = 1  e_6 = 21.9287852
l = 1  e_7 = 70.0769165
l = 1  e_8 = 230.688512
l = 2  e_0 = 0.118886491
l = 2  e_1 = 0.413983378
l = 2  e_2 = 1.16856988
l = 2  e_3 = 3.20940818
l = 2  e_4 = 9.34825851
l = 2  e_5 = 29.7679802
l = 2  e_6 = 110.043692
l = 3  e_0 = 0.368930488
l = 3  e_1 = 1.17096211
l = 3  e_2 = 3.21518091
l = 3  e_3 = 9.06279731
l = 3  e_4 = 36.5961238
l = 4  e_0 = 1.12536143
l = 4  e_1 = 3.22490184
l = 4  e_2 = 8.3845591
l = 0  occ = 2 + 0
l = 1  occ = 0 + 1
l = 2  occ = 0 + 0
l = 3  occ = 0 + 0
E1 = -73.18684554065538  E_coul = 19.3352677420144
cycle= 20 E= -53.851577798641  delta_E= 4.26e-14  |g|=    0  |ddm|= 8.92e-11
    CPU time for cycle= 20      0.16 sec, wall time      0.04 sec
l = 0  e_0 = -15.82414
l = 0  e_1 = -1.03895174
l = 0  e_2 = 0.0299260965
l = 0  e_3 = 0.175281698
l = 0  e_4 = 0.734028559
l = 0  e_5 = 2.78479361
l = 0  e_6 = 10.6992054
l = 0  e_7 = 37.6286881
l = 0  e_8 = 124.841584
l = 0  e_9 = 515.137364
l = 1  e_0 = -0.263375498
l = 1  e_1 = 0.0324171378
l = 1  e_2 = 0.156002831
l = 1  e_3 = 0.621422406
l = 1  e_4 = 2.16297378
l = 1  e_5 = 7.03864985
l = 1  e_6 = 21.9287852
l = 1  e_7 = 70.0769165
l = 1  e_8 = 230.688512
l = 2  e_0 = 0.118886491
l = 2  e_1 = 0.413983378
l = 2  e_2 = 1.16856988
l = 2  e_3 = 3.20940818
l = 2  e_4 = 9.34825851
l = 2  e_5 = 29.7679802
l = 2  e_6 = 110.043692
l = 3  e_0 = 0.368930488
l = 3  e_1 = 1.17096211
l = 3  e_2 = 3.21518091
l = 3  e_3 = 9.06279731
l = 3  e_4 = 36.5961238
l = 4  e_0 = 1.12536143
l = 4  e_1 = 3.22490184
l = 4  e_2 = 8.3845591
l = 0  occ = 2 + 0
l = 1  occ = 0 + 1
l = 2  occ = 0 + 0
l = 3  occ = 0 + 0
E1 = -73.18684554078479  E_coul = 19.33526774214382
Extra cycle  E= -53.851577798641  delta_E= 2.13e-14  |g|=    0  |ddm|= 8.92e-11
    CPU time for scf_cycle      4.51 sec, wall time      1.14 sec
    CPU time for SCF      4.51 sec, wall time      1.14 sec
Atomic HF for atom  N  converged. SCF energy = -53.851577798641

Atom N, E = -53.8515777986
Nelec from initial guess = (np.float64(3.4999999999999982), np.float64(3.4999999999999982))
E1 = -73.18684554078479  Ecoul = 19.335267742143817
init E= -53.851577798641
    CPU time for initialize scf      5.83 sec, wall time      1.49 sec
alpha HOMO (B2u) = -0.263375498267898  LUMO (B1u) = -0.263375498267891
alpha irrep_nelec = [2, 0, 0, 0, 0, 0, 1, 1]
beta  irrep_nelec = [2, 0, 0, 0, 0, 0, 0, 0]
alpha-Ag nocc = 2  HOMO = -1.03895174333251  LUMO = 0.0299260965485464
   mo_energy = [-1.58241400e+01 -1.03895174e+00  2.99260965e-02  1.18886491e-01
  1.18886491e-01  1.75281698e-01  4.13983378e-01  4.13983378e-01
  7.34028559e-01  1.12536143e+00  1.12536143e+00  1.12536143e+00
  1.16856988e+00  1.16856988e+00  2.78479361e+00  3.20940818e+00
  3.20940818e+00  3.22490184e+00  3.22490184e+00  3.22490184e+00
  8.38455910e+00  8.38455910e+00  8.38455910e+00  9.34825851e+00
  9.34825851e+00  1.06992054e+01  2.97679802e+01  2.97679802e+01
  3.76286881e+01  1.10043692e+02  1.10043692e+02  1.24841584e+02
  5.15137364e+02]
alpha-B1g nocc = 0
   mo_energy = [  0.11888649   0.41398338   1.12536143   1.12536143   1.16856988
   3.20940818   3.22490184   3.22490184   8.3845591    8.3845591
   9.34825851  29.76798022 110.04369154]
alpha-B2g nocc = 0
   mo_energy = [  0.11888649   0.41398338   1.12536143   1.12536143   1.16856988
   3.20940818   3.22490184   3.22490184   8.3845591    8.3845591
   9.34825851  29.76798022 110.04369154]
alpha-B3g nocc = 0
   mo_energy = [  0.11888649   0.41398338   1.12536143   1.12536143   1.16856988
   3.20940818   3.22490184   3.22490184   8.3845591    8.3845591
   9.34825851  29.76798022 110.04369154]
alpha-Au nocc = 0
   mo_energy = [ 0.36893049  1.17096211  3.21518091  9.06279731 36.59612377]
alpha-B1u nocc = 0
   mo_energy = [-2.63375498e-01  3.24171378e-02  1.56002831e-01  3.68930488e-01
  3.68930488e-01  6.21422406e-01  1.17096211e+00  1.17096211e+00
  2.16297378e+00  3.21518091e+00  3.21518091e+00  7.03864985e+00
  9.06279731e+00  9.06279731e+00  2.19287852e+01  3.65961238e+01
  3.65961238e+01  7.00769165e+01  2.30688512e+02]
alpha-B2u nocc = 1  HOMO = -0.263375498267898  LUMO = 0.032417137771616

WARN: alpha-B2u HOMO -0.263375498267898 > system LUMO -0.263375498267891

   mo_energy = [-2.63375498e-01  3.24171378e-02  1.56002831e-01  3.68930488e-01
  3.68930488e-01  6.21422406e-01  1.17096211e+00  1.17096211e+00
  2.16297378e+00  3.21518091e+00  3.21518091e+00  7.03864985e+00
  9.06279731e+00  9.06279731e+00  2.19287852e+01  3.65961238e+01
  3.65961238e+01  7.00769165e+01  2.30688512e+02]
alpha-B3u nocc = 1  HOMO = -0.263375498267898  LUMO = 0.0324171377716124

WARN: alpha-B3u HOMO -0.263375498267898 > system LUMO -0.263375498267891

   mo_energy = [-2.63375498e-01  3.24171378e-02  1.56002831e-01  3.68930488e-01
  3.68930488e-01  6.21422406e-01  1.17096211e+00  1.17096211e+00
  2.16297378e+00  3.21518091e+00  3.21518091e+00  7.03864985e+00
  9.06279731e+00  9.06279731e+00  2.19287852e+01  3.65961238e+01
  3.65961238e+01  7.00769165e+01  2.30688512e+02]
beta-Ag nocc = 2  HOMO = -1.03895174333251  LUMO = 0.0299260965485464
   mo_energy = [-1.58241400e+01 -1.03895174e+00  2.99260965e-02  1.18886491e-01
  1.18886491e-01  1.75281698e-01  4.13983378e-01  4.13983378e-01
  7.34028559e-01  1.12536143e+00  1.12536143e+00  1.12536143e+00
  1.16856988e+00  1.16856988e+00  2.78479361e+00  3.20940818e+00
  3.20940818e+00  3.22490184e+00  3.22490184e+00  3.22490184e+00
  8.38455910e+00  8.38455910e+00  8.38455910e+00  9.34825851e+00
  9.34825851e+00  1.06992054e+01  2.97679802e+01  2.97679802e+01
  3.76286881e+01  1.10043692e+02  1.10043692e+02  1.24841584e+02
  5.15137364e+02]
beta-B1g nocc = 0
   mo_energy = [  0.11888649   0.41398338   1.12536143   1.12536143   1.16856988
   3.20940818   3.22490184   3.22490184   8.3845591    8.3845591
   9.34825851  29.76798022 110.04369154]
beta-B2g nocc = 0
   mo_energy = [  0.11888649   0.41398338   1.12536143   1.12536143   1.16856988
   3.20940818   3.22490184   3.22490184   8.3845591    8.3845591
   9.34825851  29.76798022 110.04369154]
beta-B3g nocc = 0
   mo_energy = [  0.11888649   0.41398338   1.12536143   1.12536143   1.16856988
   3.20940818   3.22490184   3.22490184   8.3845591    8.3845591
   9.34825851  29.76798022 110.04369154]
beta-Au nocc = 0
   mo_energy = [ 0.36893049  1.17096211  3.21518091  9.06279731 36.59612377]
beta-B1u nocc = 0
   mo_energy = [-2.63375498e-01  3.24171378e-02  1.56002831e-01  3.68930488e-01
  3.68930488e-01  6.21422406e-01  1.17096211e+00  1.17096211e+00
  2.16297378e+00  3.21518091e+00  3.21518091e+00  7.03864985e+00
  9.06279731e+00  9.06279731e+00  2.19287852e+01  3.65961238e+01
  3.65961238e+01  7.00769165e+01  2.30688512e+02]
beta-B2u nocc = 0
   mo_energy = [-2.63375498e-01  3.24171378e-02  1.56002831e-01  3.68930488e-01
  3.68930488e-01  6.21422406e-01  1.17096211e+00  1.17096211e+00
  2.16297378e+00  3.21518091e+00  3.21518091e+00  7.03864985e+00
  9.06279731e+00  9.06279731e+00  2.19287852e+01  3.65961238e+01
  3.65961238e+01  7.00769165e+01  2.30688512e+02]
beta-B3u nocc = 0
   mo_energy = [-2.63375498e-01  3.24171378e-02  1.56002831e-01  3.68930488e-01
  3.68930488e-01  6.21422406e-01  1.17096211e+00  1.17096211e+00
  2.16297378e+00  3.21518091e+00  3.21518091e+00  7.03864985e+00
  9.06279731e+00  9.06279731e+00  2.19287852e+01  3.65961238e+01
  3.65961238e+01  7.00769165e+01  2.30688512e+02]
multiplicity <S^2> = 2  2S+1 = 3
E1 = -68.65788826797795  Ecoul = 14.897893401116217
cycle= 1 E= -53.7599948668617  delta_E= 0.0916  |g|= 0.412  |ddm|= 0.412
    CPU time for cycle= 1      0.34 sec, wall time      0.09 sec
diis-norm(errvec)=0.582573
diis-c [-0.33939143  1.        ]
alpha HOMO (B2u) = -1.19082712117671  LUMO (B1u) = -0.621267998846927
alpha irrep_nelec = [2, 0, 0, 0, 0, 0, 1, 1]
beta  irrep_nelec = [2, 0, 0, 0, 0, 0, 0, 0]
alpha-Ag nocc = 2  HOMO = -1.74911832848449  LUMO = -0.160276866174793
   mo_energy = [-1.67032048e+01 -1.74911833e+00 -1.60276866e-01 -4.16407714e-02
 -4.01979209e-02 -3.49528333e-02  1.37449412e-01  1.41127400e-01
  3.71737576e-01  7.23852870e-01  7.36168394e-01  8.35270253e-01
  8.38734387e-01  8.49221263e-01  2.21564288e+00  2.60417832e+00
  2.60733879e+00  2.77349615e+00  2.78111041e+00  2.80418669e+00
  7.74700517e+00  7.75922627e+00  7.79599538e+00  8.59718785e+00
  8.61684346e+00  9.95304859e+00  2.89256012e+01  2.89554240e+01
  3.67988748e+01  1.09168969e+02  1.09188838e+02  1.23979780e+02
  5.14266335e+02]
alpha-B1g nocc = 0
   mo_energy = [-4.01979209e-02  1.37449412e-01  7.23852870e-01  8.38734387e-01
  8.49221263e-01  2.60417832e+00  2.78111041e+00  2.80418669e+00
  7.75922627e+00  7.79599538e+00  8.61684346e+00  2.89554240e+01
  1.09188838e+02]
alpha-B2g nocc = 0
   mo_energy = [-4.12531301e-02  1.40053541e-01  7.32572294e-01  8.36134665e-01
  8.43087220e-01  2.60616359e+00  2.77539623e+00  2.79068148e+00
  7.75005863e+00  7.77452845e+00  8.60203569e+00  2.89330601e+01
  1.09173941e+02]
alpha-B3g nocc = 0
   mo_energy = [-4.12531301e-02  1.40053541e-01  7.32572294e-01  8.36134665e-01
  8.43087220e-01  2.60616359e+00  2.77539623e+00  2.79068148e+00
  7.75005863e+00  7.77452845e+00  8.60203569e+00  2.89330601e+01
  1.09173941e+02]
alpha-Au nocc = 0
   mo_energy = [ 0.16512366  0.83293034  2.70004883  8.36797229 35.76201399]
alpha-B1u nocc = 0
   mo_energy = [-6.21267999e-01 -1.01288824e-01 -2.92479245e-02  1.62571755e-01
  1.65123655e-01  2.70693220e-01  8.27062283e-01  8.32930345e-01
  1.60769562e+00  2.68945522e+00  2.70004883e+00  6.31125601e+00
  8.35133817e+00  8.36797229e+00  2.11002593e+01  3.57449879e+01
  3.57620140e+01  6.92066809e+01  2.29810090e+02]
alpha-B2u nocc = 1  HOMO = -1.19082712117671  LUMO = -0.104909797569651
   mo_energy = [-1.19082712e+00 -1.04909798e-01 -3.25541201e-02  1.63205117e-01
  1.68374712e-01  2.55796889e-01  8.28518917e-01  8.40380816e-01
  1.59268647e+00  2.69209211e+00  2.71345195e+00  6.32170056e+00
  8.35548767e+00  8.38891044e+00  2.11276685e+01  3.57492433e+01
  3.57833126e+01  6.92302801e+01  2.29822832e+02]
alpha-B3u nocc = 1  HOMO = -1.19082712117672  LUMO = -0.104909797569645
   mo_energy = [-1.19082712e+00 -1.04909798e-01 -3.25541201e-02  1.63205117e-01
  1.68374712e-01  2.55796889e-01  8.28518917e-01  8.40380816e-01
  1.59268647e+00  2.69209211e+00  2.71345195e+00  6.32170056e+00
  8.35548767e+00  8.38891044e+00  2.11276685e+01  3.57492433e+01
  3.57833126e+01  6.92302801e+01  2.29822832e+02]
beta-Ag nocc = 2  HOMO = -1.49035200287897  LUMO = -0.145100917692848
   mo_energy = [-1.66553379e+01 -1.49035200e+00 -1.45100918e-01 -3.92290052e-02
 -3.43955955e-02 -2.47975522e-02  1.55085534e-01  1.70989987e-01
  4.03915920e-01  7.74536922e-01  8.13712128e-01  8.39374798e-01
  8.43748810e-01  8.56899982e-01  2.26985490e+00  2.65916619e+00
  2.72063713e+00  2.78800936e+00  2.79905608e+00  2.83265140e+00
  7.77295175e+00  7.79132142e+00  7.84693442e+00  8.63842098e+00
  8.70700356e+00  9.99861030e+00  2.89463880e+01  2.89996186e+01
  3.68197890e+01  1.09175141e+02  1.09201704e+02  1.23986584e+02
  5.14268077e+02]
beta-B1g nocc = 0
   mo_energy = [-3.43955955e-02  1.70989987e-01  8.13712128e-01  8.43748810e-01
  8.56899982e-01  2.72063713e+00  2.79905608e+00  2.83265140e+00
  7.79132142e+00  7.84693442e+00  8.70700356e+00  2.89996186e+01
  1.09201704e+02]
beta-B2g nocc = 0
   mo_energy = [-3.79147004e-02  1.58907579e-01  7.83901643e-01  8.40462511e-01
  8.49104952e-01  2.67405186e+00  2.79076429e+00  2.81296339e+00
  7.77753667e+00  7.81439890e+00  8.65553665e+00  2.89597079e+01
  1.09181790e+02]
beta-B3g nocc = 0
   mo_energy = [-3.79147004e-02  1.58907579e-01  7.83901643e-01  8.40462511e-01
  8.49104952e-01  2.67405186e+00  2.79076429e+00  2.81296339e+00
  7.77753667e+00  7.81439890e+00  8.65553665e+00  2.89597079e+01
  1.09181790e+02]
beta-Au nocc = 0
   mo_energy = [ 0.16768242  0.85037054  2.7440558   8.42295834 35.79317061]
beta-B1u nocc = 0
   mo_energy = [-5.55774758e-01 -9.86808507e-02 -2.65052234e-02  1.64336736e-01
  1.67682423e-01  2.83811474e-01  8.39152022e-01  8.50370543e-01
  1.63212561e+00  2.71993168e+00  2.74405580e+00  6.33480978e+00
  8.38929216e+00  8.42295834e+00  2.11148657e+01  3.57663737e+01
  3.57931706e+01  6.92127671e+01  2.29811884e+02]
beta-B2u nocc = 0
   mo_energy = [-4.90205198e-01 -9.26354690e-02 -1.99563820e-02  1.65172574e-01
  1.71929377e-01  3.09890534e-01  8.41937529e-01  8.64784807e-01
  1.68352351e+00  2.72592070e+00  2.77502955e+00  6.39753461e+00
  8.39767583e+00  8.46561907e+00  2.11689017e+01  3.57730696e+01
  3.58267171e+01  6.92461716e+01  2.29827246e+02]
beta-B3u nocc = 0
   mo_energy = [-4.90205198e-01 -9.26354690e-02 -1.99563820e-02  1.65172574e-01
  1.71929377e-01  3.09890534e-01  8.41937529e-01  8.64784807e-01
  1.68352351e+00  2.72592070e+00  2.77502955e+00  6.39753461e+00
  8.39767583e+00  8.46561907e+00  2.11689017e+01  3.57730696e+01
  3.58267171e+01  6.92461716e+01  2.29827246e+02]
multiplicity <S^2> = 2.0017839  2S+1 = 3.0011891
E1 = -70.02519045190448  Ecoul = 16.138372022972153
cycle= 2 E= -53.8868184289323  delta_E= -0.127  |g|= 0.105  |ddm|= 0.463
    CPU time for cycle= 2      0.34 sec, wall time      0.09 sec
diis-norm(errvec)=0.14869
diis-c [-0.02206054  0.0121836   0.9878164 ]
alpha HOMO (B2u) = -1.11110438264228  LUMO (B1u) = -0.470626091075957
alpha irrep_nelec = [2, 0, 0, 0, 0, 0, 1, 1]
beta  irrep_nelec = [2, 0, 0, 0, 0, 0, 0, 0]
alpha-Ag nocc = 2  HOMO = -1.62711553298329  LUMO = -0.145550577197329
   mo_energy = [-1.63281703e+01 -1.62711553e+00 -1.45550577e-01 -3.81284144e-02
 -3.61979916e-02 -2.50412767e-02  1.59102752e-01  1.59699005e-01
  4.09527647e-01  7.78580181e-01  7.92647021e-01  8.45183638e-01
  8.48008823e-01  8.56589297e-01  2.33022597e+00  2.71505936e+00
  2.73096800e+00  2.82091567e+00  2.82812563e+00  2.85002332e+00
  7.88361750e+00  7.89658360e+00  7.93565372e+00  8.82364251e+00
  8.83879282e+00  1.01980397e+01  2.92500115e+01  2.92858445e+01
  3.71414415e+01  1.09556841e+02  1.09583158e+02  1.24375295e+02
  5.14690764e+02]
alpha-B1g nocc = 0
   mo_energy = [-3.61979916e-02  1.59699005e-01  7.78580181e-01  8.48008823e-01
  8.56589297e-01  2.71505936e+00  2.82812563e+00  2.85002332e+00
  7.89658360e+00  7.93565372e+00  8.83879282e+00  2.92858445e+01
  1.09583158e+02]
alpha-B2g nocc = 0
   mo_energy = [-3.76578288e-02  1.59062993e-01  7.88350614e-01  8.45886936e-01
  8.51569523e-01  2.72608545e+00  2.82271293e+00  2.83720371e+00
  7.88685612e+00  7.91283291e+00  8.82727933e+00  2.92589714e+01
  1.09563428e+02]
alpha-B3g nocc = 0
   mo_energy = [-3.76578288e-02  1.59062993e-01  7.88350614e-01  8.45886936e-01
  8.51569523e-01  2.72608545e+00  2.82271293e+00  2.83720371e+00
  7.88685612e+00  7.91283291e+00  8.82727933e+00  2.92589714e+01
  1.09563428e+02]
alpha-Au nocc = 0
   mo_energy = [ 0.16808636  0.85596662  2.7800948   8.55701795 36.09452237]
alpha-B1u nocc = 0
   mo_energy = [-4.70626091e-01 -9.38604347e-02 -2.04477939e-02  1.66063091e-01
  1.68086358e-01  3.17377299e-01  8.50247046e-01  8.55966619e-01
  1.73457674e+00  2.76995499e+00  2.78009480e+00  6.53631540e+00
  8.53971207e+00  8.55701795e+00  2.14109124e+01  3.60731745e+01
  3.60945224e+01  6.95788662e+01  2.30219220e+02]
alpha-B2u nocc = 1  HOMO = -1.11110438264228  LUMO = -0.0975595209044609
   mo_energy = [-1.11110438e+00 -9.75595209e-02 -2.60119062e-02  1.66567519e-01
  1.70644252e-01  2.87250998e-01  8.51665681e-01  8.63221618e-01
  1.69433128e+00  2.77247448e+00  2.79293487e+00  6.53619549e+00
  8.54402743e+00  8.57882696e+00  2.14416545e+01  3.60785094e+01
  3.61212384e+01  6.96092033e+01  2.30236336e+02]
alpha-B3u nocc = 1  HOMO = -1.11110438264228  LUMO = -0.0975595209044637
   mo_energy = [-1.11110438e+00 -9.75595209e-02 -2.60119062e-02  1.66567519e-01
  1.70644252e-01  2.87250998e-01  8.51665681e-01  8.63221618e-01
  1.69433128e+00  2.77247448e+00  2.79293487e+00  6.53619549e+00
  8.54402743e+00  8.57882696e+00  2.14416545e+01  3.60785094e+01
  3.61212384e+01  6.96092033e+01  2.30236336e+02]
beta-Ag nocc = 2  HOMO = -1.32953449016069  LUMO = -0.138416171029782
   mo_energy = [-1.62606706e+01 -1.32953449e+00 -1.38416171e-01 -3.73200172e-02
 -3.41533157e-02 -1.75442558e-02  1.66506960e-01  1.78851893e-01
  4.41629065e-01  8.26276485e-01  8.47333311e-01  8.49639914e-01
  8.59819955e-01  8.65966188e-01  2.39855373e+00  2.79350216e+00
  2.83249771e+00  2.84216692e+00  2.86572310e+00  2.87370945e+00
  7.91307766e+00  7.93381917e+00  7.99676771e+00  8.87937858e+00
  8.96564031e+00  1.02603378e+01  2.92793705e+01  2.93497201e+01
  3.71704701e+01  1.09565503e+02  1.09601796e+02  1.24384332e+02
  5.14692647e+02]
beta-B1g nocc = 0
   mo_energy = [-3.41533157e-02  1.78851893e-01  8.49639914e-01  8.59819955e-01
  8.65966188e-01  2.84216692e+00  2.86572310e+00  2.87370945e+00
  7.93381917e+00  7.99676771e+00  8.96564031e+00  2.93497201e+01
  1.09601796e+02]
beta-B2g nocc = 0
   mo_energy = [-3.64934668e-02  1.69489600e-01  8.35215947e-01  8.48382941e-01
  8.54057483e-01  2.81038956e+00  2.83518495e+00  2.85538153e+00
  7.91825219e+00  7.95991228e+00  8.90095429e+00  2.92969855e+01
  1.09574592e+02]
beta-B3g nocc = 0
   mo_energy = [-3.64934668e-02  1.69489600e-01  8.35215947e-01  8.48382941e-01
  8.54057483e-01  2.81038956e+00  2.83518495e+00  2.85538153e+00
  7.91825219e+00  7.95991228e+00  8.90095429e+00  2.92969855e+01
  1.09574592e+02]
beta-Au nocc = 0
   mo_energy = [ 0.16885426  0.86661115  2.82470701  8.62860189 36.13922977]
beta-B1u nocc = 0
   mo_energy = [-4.11266855e-01 -9.16635041e-02 -1.72935135e-02  1.66581723e-01
  1.68854260e-01  3.32054157e-01  8.57322126e-01  8.66611153e-01
  1.76257459e+00  2.79961147e+00  2.82470701e+00  6.56554726e+00
  8.58782026e+00  8.62860189e+00  2.14302739e+01  3.61035269e+01
  3.61392298e+01  6.95868597e+01  2.30221159e+02]
beta-B2u nocc = 0
   mo_energy = [-3.38311089e-01 -8.65055287e-02 -9.64203358e-03  1.67149797e-01
  1.71728673e-01  3.62339629e-01  8.59631910e-01  8.78482074e-01
  1.82259184e+00  2.80584144e+00  2.85692366e+00  6.64297581e+00
  8.59797062e+00  8.68038608e+00  2.15004534e+01  3.61124470e+01
  3.61839452e+01  6.96317716e+01  2.30242175e+02]
beta-B3u nocc = 0
   mo_energy = [-3.38311089e-01 -8.65055287e-02 -9.64203358e-03  1.67149797e-01
  1.71728673e-01  3.62339629e-01  8.59631910e-01  8.78482074e-01
  1.82259184e+00  2.80584144e+00  2.85692366e+00  6.64297581e+00
  8.59797062e+00  8.68038608e+00  2.15004534e+01  3.61124470e+01
  3.61839452e+01  6.96317716e+01  2.30242175e+02]
multiplicity <S^2> = 2.0043165  2S+1 = 3.0028763
E1 = -70.0333527898736  Ecoul = 16.140860070358013
cycle= 3 E= -53.8924927195156  delta_E= -0.00567  |g|= 0.0297  |ddm|= 0.0874
    CPU time for cycle= 3      0.34 sec, wall time      0.09 sec
diis-norm(errvec)=0.0419864
diis-c [-6.08634859e-04 -2.41943919e-02 -2.63407326e-01  1.28760172e+00]
alpha HOMO (B3u) = -1.1144814328194  LUMO (B1u) = -0.459161247011369
alpha irrep_nelec = [2, 0, 0, 0, 0, 0, 1, 1]
beta  irrep_nelec = [2, 0, 0, 0, 0, 0, 0, 0]
alpha-Ag nocc = 2  HOMO = -1.62091865662574  LUMO = -0.143871618606967
   mo_energy = [-1.63180727e+01 -1.62091866e+00 -1.43871619e-01 -3.76528575e-02
 -3.56577520e-02 -2.37100680e-02  1.61749914e-01  1.63115509e-01
  4.13548074e-01  7.83753632e-01  7.98837734e-01  8.46798409e-01
  8.49490471e-01  8.57695669e-01  2.33862327e+00  2.72044433e+00
  2.73964060e+00  2.82703996e+00  2.83414204e+00  2.85574303e+00
  7.89454084e+00  7.90757142e+00  7.94685277e+00  8.83557677e+00
  8.85011915e+00  1.02106431e+01  2.92632719e+01  2.93002155e+01
  3.71537491e+01  1.09566407e+02  1.09593598e+02  1.24382389e+02
  5.14689051e+02]
alpha-B1g nocc = 0
   mo_energy = [-3.56577520e-02  1.63115509e-01  7.83753632e-01  8.49490471e-01
  8.57695669e-01  2.72044433e+00  2.83414204e+00  2.85574303e+00
  7.90757142e+00  7.94685277e+00  8.85011915e+00  2.93002155e+01
  1.09593598e+02]
alpha-B2g nocc = 0
   mo_energy = [-3.71431797e-02  1.61897537e-01  7.94260814e-01  8.47467442e-01
  8.52892157e-01  2.73392001e+00  2.82880961e+00  2.84309220e+00
  7.89779519e+00  7.92390627e+00  8.83909337e+00  2.92725048e+01
  1.09573209e+02]
alpha-B3g nocc = 0
   mo_energy = [-3.71431797e-02  1.61897537e-01  7.94260814e-01  8.47467442e-01
  8.52892157e-01  2.73392001e+00  2.82880961e+00  2.84309220e+00
  7.89779519e+00  7.92390627e+00  8.83909337e+00  2.92725048e+01
  1.09573209e+02]
alpha-Au nocc = 0
   mo_energy = [ 0.16853798  0.8594142   2.78792021  8.56867844 36.10914654]
alpha-B1u nocc = 0
   mo_energy = [-4.59161247e-01 -9.32384044e-02 -1.96131516e-02  1.66624907e-01
  1.68537980e-01  3.21448916e-01  8.53729877e-01  8.59414198e-01
  1.74315921e+00  2.77805168e+00  2.78792021e+00  6.54761295e+00
  8.55138228e+00  8.56867844e+00  2.14232151e+01  3.60870958e+01
  3.61091465e+01  6.95888846e+01  2.30222741e+02]
alpha-B2u nocc = 1  HOMO = -1.11448143281941  LUMO = -0.0971810244340578
   mo_energy = [-1.11448143e+00 -9.71810244e-02 -2.56199236e-02  1.67101917e-01
  1.70954846e-01  2.88975667e-01  8.55139342e-01  8.66630989e-01
  1.69945321e+00  2.78050821e+00  2.80034434e+00  6.54631362e+00
  8.55569964e+00  8.59040918e+00  2.14547093e+01  3.60926055e+01
  3.61367535e+01  6.96202290e+01  2.30240399e+02]
alpha-B3u nocc = 1  HOMO = -1.1144814328194  LUMO = -0.0971810244340503
   mo_energy = [-1.11448143e+00 -9.71810244e-02 -2.56199236e-02  1.67101917e-01
  1.70954846e-01  2.88975667e-01  8.55139342e-01  8.66630989e-01
  1.69945321e+00  2.78050821e+00  2.80034434e+00  6.54631362e+00
  8.55569964e+00  8.59040918e+00  2.14547093e+01  3.60926055e+01
  3.61367535e+01  6.96202290e+01  2.30240399e+02]
beta-Ag nocc = 2  HOMO = -1.30777420255301  LUMO = -0.137350137216909
   mo_energy = [-1.62468871e+01 -1.30777420e+00 -1.37350137e-01 -3.71016559e-02
 -3.42106400e-02 -1.62802488e-02  1.67505038e-01  1.79305755e-01
  4.47652729e-01  8.30448232e-01  8.48498659e-01  8.50497905e-01
  8.59957347e-01  8.70710738e-01  2.41304387e+00  2.80468253e+00
  2.83769369e+00  2.84705928e+00  2.87838681e+00  2.87990426e+00
  7.92485070e+00  7.94619175e+00  8.01113669e+00  8.89445380e+00
  8.98427591e+00  1.02780788e+01  2.92939235e+01  2.93670604e+01
  3.71851073e+01  1.09575584e+02  1.09613193e+02  1.24392482e+02
  5.14691499e+02]
beta-B1g nocc = 0
   mo_energy = [-3.42106400e-02  1.79305755e-01  8.50497905e-01  8.59957347e-01
  8.70710738e-01  2.84705928e+00  2.87838681e+00  2.87990426e+00
  7.94619175e+00  8.01113669e+00  8.98427591e+00  2.93670604e+01
  1.09613193e+02]
beta-B2g nocc = 0
   mo_energy = [-3.63541513e-02  1.70346533e-01  8.39250915e-01  8.49680711e-01
  8.54584210e-01  2.82189275e+00  2.84055000e+00  2.86016960e+00
  7.93017219e+00  7.97307932e+00  8.91688138e+00  2.93122105e+01
  1.09584995e+02]
beta-B3g nocc = 0
   mo_energy = [-3.63541513e-02  1.70346533e-01  8.39250915e-01  8.49680711e-01
  8.54584210e-01  2.82189275e+00  2.84055000e+00  2.86016960e+00
  7.93017219e+00  7.97307932e+00  8.91688138e+00  2.93122105e+01
  1.09584995e+02]
beta-Au nocc = 0
   mo_energy = [ 0.16896896  0.86829273  2.83267768  8.64447789 36.15603199]
beta-B1u nocc = 0
   mo_energy = [-4.03362122e-01 -9.10118355e-02 -1.63330842e-02  1.66897790e-01
  1.68968965e-01  3.36473982e-01  8.59334016e-01  8.68292735e-01
  1.77143107e+00  2.80712649e+00  2.83267768e+00  6.57787248e+00
  8.60212664e+00  8.64447789e+00  2.14438560e+01  3.61189224e+01
  3.61560320e+01  6.95977031e+01  2.30225237e+02]
beta-B2u nocc = 0
   mo_energy = [-3.26705450e-01 -8.58189264e-02 -8.35061558e-03  1.67415832e-01
  1.71587177e-01  3.67904618e-01  8.61562144e-01  8.79741858e-01
  1.83354169e+00  2.81346613e+00  2.86555144e+00  6.65845798e+00
  8.61266003e+00  8.69839814e+00  2.15169411e+01  3.61281901e+01
  3.62025673e+01  6.96443261e+01  2.30246971e+02]
beta-B3u nocc = 0
   mo_energy = [-3.26705450e-01 -8.58189264e-02 -8.35061558e-03  1.67415832e-01
  1.71587177e-01  3.67904618e-01  8.61562144e-01  8.79741858e-01
  1.83354169e+00  2.81346613e+00  2.86555144e+00  6.65845798e+00
  8.61266003e+00  8.69839814e+00  2.15169411e+01  3.61281901e+01
  3.62025673e+01  6.96443261e+01  2.30246971e+02]
multiplicity <S^2> = 2.0064117  2S+1 = 3.0042714
E1 = -70.05392252783818  Ecoul = 16.160670210398347
cycle= 4 E= -53.8932523174398  delta_E= -0.00076  |g|= 0.00537  |ddm|= 0.0622
    CPU time for cycle= 4      0.34 sec, wall time      0.09 sec
diis-norm(errvec)=0.00759156
diis-c [-1.96095170e-05  2.33945978e-03  5.25023647e-02 -3.41396376e-01
  1.28655455e+00]
alpha HOMO (B3u) = -1.11635907181798  LUMO (B1u) = -0.460416852242936
alpha irrep_nelec = [2, 0, 0, 0, 0, 0, 1, 1]
beta  irrep_nelec = [2, 0, 0, 0, 0, 0, 0, 0]
alpha-Ag nocc = 2  HOMO = -1.6228004736728  LUMO = -0.144075203954152
   mo_energy = [-1.63206992e+01 -1.62280047e+00 -1.44075204e-01 -3.76760209e-02
 -3.57070876e-02 -2.38551289e-02  1.61657791e-01  1.63011253e-01
  4.13038234e-01  7.83339978e-01  7.98387448e-01  8.46709011e-01
  8.49379290e-01  8.57523317e-01  2.33705446e+00  2.71857715e+00
  2.73803071e+00  2.82655182e+00  2.83361457e+00  2.85509846e+00
  7.89288064e+00  7.90587819e+00  7.94506347e+00  8.83324184e+00
  8.84758609e+00  1.02083088e+01  2.92612670e+01  2.92982726e+01
  3.71516693e+01  1.09564841e+02  1.09592174e+02  1.24380692e+02
  5.14687624e+02]
alpha-B1g nocc = 0
   mo_energy = [-3.57070876e-02  1.63011253e-01  7.83339978e-01  8.49379290e-01
  8.57523317e-01  2.71857715e+00  2.83361457e+00  2.85509846e+00
  7.90587819e+00  7.94506347e+00  8.84758609e+00  2.92982726e+01
  1.09592174e+02]
alpha-B2g nocc = 0
   mo_energy = [-3.71733617e-02  1.61810370e-01  7.93869810e-01  8.47372587e-01
  8.52754637e-01  2.73229762e+00  2.82831179e+00  2.84251525e+00
  7.89612663e+00  7.92217285e+00  8.83671806e+00  2.92705124e+01
  1.09571677e+02]
alpha-B3g nocc = 0
   mo_energy = [-3.71733617e-02  1.61810370e-01  7.93869810e-01  8.47372587e-01
  8.52754637e-01  2.73229762e+00  2.82831179e+00  2.84251525e+00
  7.89612663e+00  7.92217285e+00  8.83671806e+00  2.92705124e+01
  1.09571677e+02]
alpha-Au nocc = 0
   mo_energy = [ 0.16848975  0.85921399  2.7869936   8.56644278 36.10709077]
alpha-B1u nocc = 0
   mo_energy = [-4.60416852e-01 -9.33095129e-02 -1.97132026e-02  1.66593112e-01
  1.68489752e-01  3.20963917e-01  8.53564192e-01  8.59213987e-01
  1.74198512e+00  2.77716573e+00  2.78699360e+00  6.54579848e+00
  8.54918366e+00  8.56644278e+00  2.14212070e+01  3.60849729e+01
  3.61070908e+01  6.95870740e+01  2.30221174e+02]
alpha-B2u nocc = 1  HOMO = -1.11635907181799  LUMO = -0.0974165541952236
   mo_energy = [-1.11635907e+00 -9.74165542e-02 -2.58495274e-02  1.67065931e-01
  1.70887053e-01  2.88147083e-01  8.54965310e-01  8.66386998e-01
  1.69773207e+00  2.77961443e+00  2.79933202e+00  6.54409702e+00
  8.55349298e+00  8.58810624e+00  2.14526728e+01  3.60904990e+01
  3.61347871e+01  6.96185439e+01  2.30238937e+02]
alpha-B3u nocc = 1  HOMO = -1.11635907181798  LUMO = -0.0974165541952204
   mo_energy = [-1.11635907e+00 -9.74165542e-02 -2.58495274e-02  1.67065931e-01
  1.70887053e-01  2.88147083e-01  8.54965310e-01  8.66386998e-01
  1.69773207e+00  2.77961443e+00  2.79933202e+00  6.54409702e+00
  8.55349298e+00  8.58810624e+00  2.14526728e+01  3.60904990e+01
  3.61347871e+01  6.96185439e+01  2.30238937e+02]
beta-Ag nocc = 2  HOMO = -1.30640501293388  LUMO = -0.137299584962932
   mo_energy = [-1.62472519e+01 -1.30640501e+00 -1.37299585e-01 -3.71322961e-02
 -3.42470532e-02 -1.62263181e-02  1.67222774e-01  1.78998575e-01
  4.47770218e-01  8.29530841e-01  8.48327769e-01  8.50332917e-01
  8.59750742e-01  8.69734309e-01  2.41281255e+00  2.80354990e+00
  2.83693109e+00  2.84623499e+00  2.87744907e+00  2.87885277e+00
  7.92327379e+00  7.94459892e+00  8.00955691e+00  8.89287965e+00
  8.98294058e+00  1.02771768e+01  2.92922343e+01  2.93656843e+01
  3.71840449e+01  1.09574321e+02  1.09612145e+02  1.24391565e+02
  5.14690626e+02]
beta-B1g nocc = 0
   mo_energy = [-3.42470532e-02  1.78998575e-01  8.50332917e-01  8.59750742e-01
  8.69734309e-01  2.84623499e+00  2.87744907e+00  2.87885277e+00
  7.94459892e+00  8.00955691e+00  8.98294058e+00  2.93656843e+01
  1.09612145e+02]
beta-B2g nocc = 0
   mo_energy = [-3.63874572e-02  1.70056836e-01  8.38376853e-01  8.49449646e-01
  8.54407633e-01  2.82076309e+00  2.83977054e+00  2.85929739e+00
  7.92859041e+00  7.97148041e+00  8.91535249e+00  2.93105913e+01
  1.09583784e+02]
beta-B3g nocc = 0
   mo_energy = [-3.63874572e-02  1.70056836e-01  8.38376853e-01  8.49449646e-01
  8.54407633e-01  2.82076309e+00  2.83977054e+00  2.85929739e+00
  7.92859041e+00  7.97148041e+00  8.91535249e+00  2.93105913e+01
  1.09583784e+02]
beta-Au nocc = 0
   mo_energy = [ 0.16892885  0.86784962  2.83146427  8.6428699  36.15442432]
beta-B1u nocc = 0
   mo_energy = [-4.04814156e-01 -9.10321105e-02 -1.63663183e-02  1.66866239e-01
  1.68928852e-01  3.36197369e-01  8.58934777e-01  8.67849624e-01
  1.77038360e+00  2.80596194e+00  2.83146427e+00  6.57638709e+00
  8.60046418e+00  8.64286990e+00  2.14423556e+01  3.61171527e+01
  3.61544243e+01  6.95964658e+01  2.30224227e+02]
beta-B2u nocc = 0
   mo_energy = [-3.27787836e-01 -8.58360902e-02 -8.37923792e-03  1.67382099e-01
  1.71536987e-01  3.67667201e-01  8.61151739e-01  8.79248587e-01
  1.83257223e+00  2.81228814e+00  2.86430285e+00  6.65716567e+00
  8.61100877e+00  8.69690252e+00  2.15157082e+01  3.61264598e+01
  3.62011798e+01  6.96433251e+01  2.30246096e+02]
beta-B3u nocc = 0
   mo_energy = [-3.27787836e-01 -8.58360902e-02 -8.37923792e-03  1.67382099e-01
  1.71536987e-01  3.67667201e-01  8.61151739e-01  8.79248587e-01
  1.83257223e+00  2.81228814e+00  2.86430285e+00  6.65716567e+00
  8.61100877e+00  8.69690252e+00  2.15157082e+01  3.61264598e+01
  3.62011798e+01  6.96433251e+01  2.30246096e+02]
multiplicity <S^2> = 2.0069216  2S+1 = 3.0046109
E1 = -70.05783155836295  Ecoul = 16.16455616325326
cycle= 5 E= -53.8932753951097  delta_E= -2.31e-05  |g|= 0.00077  |ddm|= 0.0101
    CPU time for cycle= 5      0.34 sec, wall time      0.09 sec
diis-norm(errvec)=0.00108879
diis-c [-1.54081323e-07  2.22341948e-04 -7.17963509e-03  5.04682940e-02
 -3.00114205e-01  1.25660320e+00]
alpha HOMO (B3u) = -1.11642479179978  LUMO (B1u) = -0.460395562498207
alpha irrep_nelec = [2, 0, 0, 0, 0, 0, 1, 1]
beta  irrep_nelec = [2, 0, 0, 0, 0, 0, 0, 0]
alpha-Ag nocc = 2  HOMO = -1.62293109092427  LUMO = -0.144082243770785
   mo_energy = [-1.63204540e+01 -1.62293109e+00 -1.44082244e-01 -3.76741162e-02
 -3.57092646e-02 -2.38629604e-02  1.61664315e-01  1.63009816e-01
  4.13011480e-01  7.83409555e-01  7.98426900e-01  8.46713565e-01
  8.49380659e-01  8.57514887e-01  2.33703093e+00  2.71860949e+00
  2.73806548e+00  2.82656315e+00  2.83362170e+00  2.85509149e+00
  7.89293620e+00  7.90593249e+00  7.94511358e+00  8.83340025e+00
  8.84771727e+00  1.02084463e+01  2.92616330e+01  2.92986483e+01
  3.71519688e+01  1.09565225e+02  1.09592576e+02  1.24380985e+02
  5.14687796e+02]
alpha-B1g nocc = 0
   mo_energy = [-3.57092646e-02  1.63009816e-01  7.83409555e-01  8.49380659e-01
  8.57514887e-01  2.71860949e+00  2.83362170e+00  2.85509149e+00
  7.90593249e+00  7.94511358e+00  8.84771727e+00  2.92986483e+01
  1.09592576e+02]
alpha-B2g nocc = 0
   mo_energy = [-3.71726227e-02  1.61815681e-01  7.93917804e-01  8.47376350e-01
  8.52751971e-01  2.73232809e+00  2.82832210e+00  2.84251675e+00
  7.89618188e+00  7.92222548e+00  8.83686810e+00  2.92708809e+01
  1.09572066e+02]
alpha-B3g nocc = 0
   mo_energy = [-3.71726227e-02  1.61815681e-01  7.93917804e-01  8.47376350e-01
  8.52751971e-01  2.73232809e+00  2.82832210e+00  2.84251675e+00
  7.89618188e+00  7.92222548e+00  8.83686810e+00  2.92708809e+01
  1.09572066e+02]
alpha-Au nocc = 0
   mo_energy = [ 0.1684902   0.85921696  2.7870293   8.56654177 36.10747881]
alpha-B1u nocc = 0
   mo_energy = [-4.60395562e-01 -9.33070001e-02 -1.97105820e-02  1.66595890e-01
  1.68490198e-01  3.20975812e-01  8.53573195e-01  8.59216957e-01
  1.74206660e+00  2.77720023e+00  2.78702930e+00  6.54598705e+00
  8.54928421e+00  8.56654177e+00  2.14215070e+01  3.60853514e+01
  3.61074788e+01  6.95874166e+01  2.30221437e+02]
alpha-B2u nocc = 1  HOMO = -1.11642479179979  LUMO = -0.097405729384273
   mo_energy = [-1.11642479e+00 -9.74057294e-02 -2.58419334e-02  1.67068130e-01
  1.70884525e-01  2.88148146e-01  8.54972850e-01  8.66381889e-01
  1.69774842e+00  2.77964910e+00  2.79937049e+00  6.54424818e+00
  8.55359304e+00  8.58820471e+00  2.14529756e+01  3.60908800e+01
  3.61351867e+01  6.96189039e+01  2.30239213e+02]
alpha-B3u nocc = 1  HOMO = -1.11642479179978  LUMO = -0.0974057293842762
   mo_energy = [-1.11642479e+00 -9.74057294e-02 -2.58419334e-02  1.67068130e-01
  1.70884525e-01  2.88148146e-01  8.54972850e-01  8.66381889e-01
  1.69774842e+00  2.77964910e+00  2.79937049e+00  6.54424818e+00
  8.55359304e+00  8.58820471e+00  2.14529756e+01  3.60908800e+01
  3.61351867e+01  6.96189039e+01  2.30239213e+02]
beta-Ag nocc = 2  HOMO = -1.30599071500026  LUMO = -0.13728142372056
   mo_energy = [-1.62466162e+01 -1.30599072e+00 -1.37281424e-01 -3.71327350e-02
 -3.42503618e-02 -1.62049918e-02  1.67210226e-01  1.78975467e-01
  4.47859378e-01  8.29521310e-01  8.48324795e-01  8.50328278e-01
  8.59737164e-01  8.69683656e-01  2.41303854e+00  2.80369086e+00
  2.83691234e+00  2.84620553e+00  2.87738833e+00  2.87895466e+00
  7.92335782e+00  7.94467419e+00  8.00960357e+00  8.89318933e+00
  8.98326145e+00  1.02775773e+01  2.92926476e+01  2.93661354e+01
  3.71845323e+01  1.09574753e+02  1.09612605e+02  1.24392009e+02
  5.14690907e+02]
beta-B1g nocc = 0
   mo_energy = [-3.42503618e-02  1.78975467e-01  8.50328278e-01  8.59737164e-01
  8.69683656e-01  2.84620553e+00  2.87738833e+00  2.87895466e+00
  7.94467419e+00  8.00960357e+00  8.98326145e+00  2.93661354e+01
  1.09612605e+02]
beta-B2g nocc = 0
   mo_energy = [-3.63887233e-02  1.70041611e-01  8.38359422e-01  8.49443937e-01
  8.54399391e-01  2.82088926e+00  2.83975366e+00  2.85925433e+00
  7.92867229e+00  7.97154420e+00  8.91566566e+00  2.93110146e+01
  1.09584223e+02]
beta-B3g nocc = 0
   mo_energy = [-3.63887233e-02  1.70041611e-01  8.38359422e-01  8.49443937e-01
  8.54399391e-01  2.82088926e+00  2.83975366e+00  2.85925433e+00
  7.92867229e+00  7.97154420e+00  8.91566566e+00  2.93110146e+01
  1.09584223e+02]
beta-Au nocc = 0
   mo_energy = [ 0.16892764  0.86782541  2.83144902  8.64308021 36.15488407]
beta-B1u nocc = 0
   mo_energy = [-4.04659377e-01 -9.10182643e-02 -1.63458475e-02  1.66867172e-01
  1.68927636e-01  3.36276955e-01  8.58919239e-01  8.67825410e-01
  1.77053230e+00  2.80596730e+00  2.83144902e+00  6.57665374e+00
  8.60067872e+00  8.64308021e+00  2.14427475e+01  3.61175910e+01
  3.61548841e+01  6.95969124e+01  2.30224599e+02]
beta-B2u nocc = 0
   mo_energy = [-3.27722084e-01 -8.58258396e-02 -8.35934673e-03  1.67382492e-01
  1.71533072e-01  3.67741951e-01  8.61134044e-01  8.79213222e-01
  1.83270540e+00  2.81228840e+00  2.86426037e+00  6.65743083e+00
  8.61122234e+00  8.69710573e+00  2.15161279e+01  3.61269035e+01
  3.62016655e+01  6.96438011e+01  2.30246483e+02]
beta-B3u nocc = 0
   mo_energy = [-3.27722084e-01 -8.58258396e-02 -8.35934673e-03  1.67382492e-01
  1.71533072e-01  3.67741951e-01  8.61134044e-01  8.79213222e-01
  1.83270540e+00  2.81228840e+00  2.86426037e+00  6.65743083e+00
  8.61122234e+00  8.69710573e+00  2.15161279e+01  3.61269035e+01
  3.62016655e+01  6.96438011e+01  2.30246483e+02]
multiplicity <S^2> = 2.0069749  2S+1 = 3.0046463
E1 = -70.05778168706262  Ecoul = 16.16450592975879
cycle= 6 E= -53.8932757573038  delta_E= -3.62e-07  |g|= 5.29e-05  |ddm|= 0.00198
    CPU time for cycle= 6      0.34 sec, wall time      0.09 sec
diis-norm(errvec)=7.48151e-05
diis-c [-1.57146013e-09 -4.46745566e-05  7.65847645e-04 -5.36915042e-03
  3.90738325e-02 -2.03176909e-01  1.16875105e+00]
alpha HOMO (B3u) = -1.11641291634886  LUMO (B1u) = -0.460393873247573
alpha irrep_nelec = [2, 0, 0, 0, 0, 0, 1, 1]
beta  irrep_nelec = [2, 0, 0, 0, 0, 0, 0, 0]
alpha-Ag nocc = 2  HOMO = -1.62293780763696  LUMO = -0.144081791072216
   mo_energy = [-1.63204375e+01 -1.62293781e+00 -1.44081791e-01 -3.76739212e-02
 -3.57088093e-02 -2.38629506e-02  1.61665586e-01  1.63011822e-01
  4.13011165e-01  7.83417669e-01  7.98432143e-01  8.46714139e-01
  8.49381427e-01  8.57516029e-01  2.33703419e+00  2.71862172e+00
  2.73807359e+00  2.82656769e+00  2.83362677e+00  2.85509804e+00
  7.89294792e+00  7.90594490e+00  7.94512798e+00  8.83341406e+00
  8.84773361e+00  1.02084574e+01  2.92616502e+01  2.92986658e+01
  3.71519844e+01  1.09565246e+02  1.09592596e+02  1.24381008e+02
  5.14687831e+02]
alpha-B1g nocc = 0
   mo_energy = [-3.57088093e-02  1.63011822e-01  7.83417669e-01  8.49381427e-01
  8.57516029e-01  2.71862172e+00  2.83362677e+00  2.85509804e+00
  7.90594490e+00  7.94512798e+00  8.84773361e+00  2.92986658e+01
  1.09592596e+02]
alpha-B2g nocc = 0
   mo_energy = [-3.71723606e-02  1.61816898e-01  7.93921861e-01  8.47376974e-01
  8.52752932e-01  2.73233539e+00  2.82832677e+00  2.84252247e+00
  7.89619378e+00  7.92223871e+00  8.83688239e+00  2.92708984e+01
  1.09572087e+02]
alpha-B3g nocc = 0
   mo_energy = [-3.71723606e-02  1.61816898e-01  7.93921861e-01  8.47376974e-01
  8.52752932e-01  2.73233539e+00  2.82832677e+00  2.84252247e+00
  7.89619378e+00  7.92223871e+00  8.83688239e+00  2.92708984e+01
  1.09572087e+02]
alpha-Au nocc = 0
   mo_energy = [ 0.1684905   0.85921921  2.7870377   8.56655558 36.10749576]
alpha-B1u nocc = 0
   mo_energy = [-4.60393873e-01 -9.33069684e-02 -1.97105165e-02  1.66596051e-01
  1.68490503e-01  3.20976910e-01  8.53575030e-01  8.59219209e-01
  1.74207356e+00  2.77720784e+00  2.78703770e+00  6.54599964e+00
  8.54929715e+00  8.56655558e+00  2.14215235e+01  3.60853684e+01
  3.61074958e+01  6.95874362e+01  2.30221465e+02]
alpha-B2u nocc = 1  HOMO = -1.11641291634887  LUMO = -0.0974044832805637
   mo_energy = [-1.11641292e+00 -9.74044833e-02 -2.58406534e-02  1.67068330e-01
  1.70884955e-01  2.88153774e-01  8.54974776e-01  8.66384765e-01
  1.69776186e+00  2.77965680e+00  2.79938151e+00  6.54426525e+00
  8.55360616e+00  8.58822021e+00  2.14529928e+01  3.60908970e+01
  3.61352034e+01  6.96189227e+01  2.30239240e+02]
alpha-B3u nocc = 1  HOMO = -1.11641291634886  LUMO = -0.0974044832805599
   mo_energy = [-1.11641292e+00 -9.74044833e-02 -2.58406534e-02  1.67068330e-01
  1.70884955e-01  2.88153774e-01  8.54974776e-01  8.66384765e-01
  1.69776186e+00  2.77965680e+00  2.79938151e+00  6.54426525e+00
  8.55360616e+00  8.58822021e+00  2.14529928e+01  3.60908970e+01
  3.61352034e+01  6.96189227e+01  2.30239240e+02]
beta-Ag nocc = 2  HOMO = -1.3059731565609  LUMO = -0.137280767286665
   mo_energy = [-1.62465927e+01 -1.30597316e+00 -1.37280767e-01 -3.71326311e-02
 -3.42502337e-02 -1.62041417e-02  1.67211558e-01  1.78976316e-01
  4.47863712e-01  8.29527191e-01  8.48325419e-01  8.50329089e-01
  8.59738034e-01  8.69686015e-01  2.41305169e+00  2.80370519e+00
  2.83691680e+00  2.84621042e+00  2.87739193e+00  2.87896437e+00
  7.92337223e+00  7.94468855e+00  8.00961516e+00  8.89320802e+00
  8.98327742e+00  1.02775964e+01  2.92926650e+01  2.93661510e+01
  3.71845530e+01  1.09574775e+02  1.09612625e+02  1.24392035e+02
  5.14690946e+02]
beta-B1g nocc = 0
   mo_energy = [-3.42502337e-02  1.78976316e-01  8.50329089e-01  8.59738034e-01
  8.69686015e-01  2.84621042e+00  2.87739193e+00  2.87896437e+00
  7.94468855e+00  8.00961516e+00  8.98327742e+00  2.93661510e+01
  1.09612625e+02]
beta-B2g nocc = 0
   mo_energy = [-3.63885897e-02  1.70042961e-01  8.38364867e-01  8.49444816e-01
  8.54400209e-01  2.82090347e+00  2.83975830e+00  2.85925885e+00
  7.92868673e+00  7.97155791e+00  8.91568435e+00  2.93110318e+01
  1.09584245e+02]
beta-B3g nocc = 0
   mo_energy = [-3.63885897e-02  1.70042961e-01  8.38364867e-01  8.49444816e-01
  8.54400209e-01  2.82090347e+00  2.83975830e+00  2.85925885e+00
  7.92868673e+00  7.97155791e+00  8.91568435e+00  2.93110318e+01
  1.09584245e+02]
beta-Au nocc = 0
   mo_energy = [ 0.16892781  0.86782741  2.83145698  8.64309813 36.1549009 ]
beta-B1u nocc = 0
   mo_energy = [-4.04636908e-01 -9.10174871e-02 -1.63446409e-02  1.66867266e-01
  1.68927810e-01  3.36282885e-01  8.58921226e-01  8.67827408e-01
  1.77054464e+00  2.80597592e+00  2.83145698e+00  6.57667109e+00
  8.60069732e+00  8.64309813e+00  2.14427676e+01  3.61176086e+01
  3.61549009e+01  6.95969351e+01  2.30224630e+02]
beta-B2u nocc = 0
   mo_energy = [-3.27716482e-01 -8.58254293e-02 -8.35853362e-03  1.67382608e-01
  1.71533305e-01  3.67746264e-01  8.61136053e-01  8.79214815e-01
  1.83271444e+00  2.81229693e+00  2.86426591e+00  6.65744489e+00
  8.61124087e+00  8.69712097e+00  2.15161460e+01  3.61269209e+01
  3.62016808e+01  6.96438224e+01  2.30246513e+02]
beta-B3u nocc = 0
   mo_energy = [-3.27716482e-01 -8.58254293e-02 -8.35853362e-03  1.67382608e-01
  1.71533305e-01  3.67746264e-01  8.61136053e-01  8.79214815e-01
  1.83271444e+00  2.81229693e+00  2.86426591e+00  6.65744489e+00
  8.61124087e+00  8.69712097e+00  2.15161460e+01  3.61269209e+01
  3.62016808e+01  6.96438224e+01  2.30246513e+02]
multiplicity <S^2> = 2.0069739  2S+1 = 3.0046457
E1 = -70.0577829132813  Ecoul = 16.164507154597505
[...]
  1.71533316e-01  3.67746401e-01  8.61136151e-01  8.79214879e-01
  1.83271467e+00  2.81229739e+00  2.86426626e+00  6.65744518e+00
  8.61124140e+00  8.69712145e+00  2.15161462e+01  3.61269210e+01
  3.62016808e+01  6.96438227e+01  2.30246514e+02]
multiplicity <S^2> = 2.0069738  2S+1 = 3.0046456
E1 = -70.05778801046084  Ecoul = 16.16451225175533
cycle= 48 E= -53.8932757587055  delta_E= -2.84e-14  |g|= 9.98e-13  |ddm|= 3.42e-12
    CPU time for cycle= 48      0.34 sec, wall time      0.09 sec
diis-norm(errvec)=1.34658e-12
Linear dependence found in DIIS error vectors.
diis-c [-2.89052492e-16  1.25000000e-01  1.25000000e-01  1.25000000e-01
  1.25000000e-01  1.25000000e-01  1.25000000e-01  1.25000000e-01
  1.25000000e-01]
alpha HOMO (B3u) = -1.11641129733959  LUMO (B1u) = -0.460394528762485
alpha irrep_nelec = [2, 0, 0, 0, 0, 0, 1, 1]
beta  irrep_nelec = [2, 0, 0, 0, 0, 0, 0, 0]
alpha-Ag nocc = 2  HOMO = -1.62293848493523  LUMO = -0.144081829271998
   mo_energy = [-1.63204382e+01 -1.62293848e+00 -1.44081829e-01 -3.76739164e-02
 -3.57087473e-02 -2.38629781e-02  1.61665718e-01  1.63012243e-01
  4.13011041e-01  7.83418248e-01  7.98432288e-01  8.46714156e-01
  8.49381483e-01  8.57516181e-01  2.33703404e+00  2.71862224e+00
  2.73807351e+00  2.82656787e+00  2.83362707e+00  2.85509869e+00
  7.89294811e+00  7.90594526e+00  7.94512882e+00  8.83341401e+00
  8.84773413e+00  1.02084572e+01  2.92616502e+01  2.92986660e+01
  3.71519842e+01  1.09565246e+02  1.09592596e+02  1.24381008e+02
  5.14687831e+02]
alpha-B1g nocc = 0
   mo_energy = [-3.57087473e-02  1.63012243e-01  7.83418248e-01  8.49381483e-01
  8.57516181e-01  2.71862224e+00  2.83362707e+00  2.85509869e+00
  7.90594526e+00  7.94512882e+00  8.84773413e+00  2.92986660e+01
  1.09592596e+02]
alpha-B2g nocc = 0
   mo_energy = [-3.71723439e-02  1.61817025e-01  7.93921841e-01  8.47377002e-01
  8.52753032e-01  2.73233532e+00  2.82832698e+00  2.84252292e+00
  7.89619401e+00  7.92223927e+00  8.83688247e+00  2.92708984e+01
  1.09572087e+02]
alpha-B3g nocc = 0
   mo_energy = [-3.71723439e-02  1.61817025e-01  7.93921841e-01  8.47377002e-01
  8.52753032e-01  2.73233532e+00  2.82832698e+00  2.84252292e+00
  7.89619401e+00  7.92223927e+00  8.83688247e+00  2.92708984e+01
  1.09572087e+02]
alpha-Au nocc = 0
   mo_energy = [ 0.16849052  0.85921944  2.78703804  8.56655587 36.10749581]
alpha-B1u nocc = 0
   mo_energy = [-4.60394529e-01 -9.33070178e-02 -1.97105751e-02  1.66596043e-01
  1.68490520e-01  3.20976744e-01  8.53575147e-01  8.59219436e-01
  1.74207338e+00  2.77720799e+00  2.78703804e+00  6.54599954e+00
  8.54929717e+00  8.56655587e+00  2.14215233e+01  3.60853684e+01
  3.61074958e+01  6.95874360e+01  2.30221465e+02]
alpha-B2u nocc = 1  HOMO = -1.11641129733959  LUMO = -0.0974046190848861
   mo_energy = [-1.11641130e+00 -9.74046191e-02 -2.58407592e-02  1.67068329e-01
  1.70884997e-01  2.88153721e-01  8.54974917e-01  8.66385194e-01
  1.69776238e+00  2.77965699e+00  2.79938225e+00  6.54426577e+00
  8.55360625e+00  8.58822087e+00  2.14529930e+01  3.60908970e+01
  3.61352036e+01  6.96189226e+01  2.30239240e+02]
alpha-B3u nocc = 1  HOMO = -1.11641129733959  LUMO = -0.0974046190848871
   mo_energy = [-1.11641130e+00 -9.74046191e-02 -2.58407592e-02  1.67068329e-01
  1.70884997e-01  2.88153721e-01  8.54974917e-01  8.66385194e-01
  1.69776238e+00  2.77965699e+00  2.79938225e+00  6.54426577e+00
  8.55360625e+00  8.58822087e+00  2.14529930e+01  3.60908970e+01
  3.61352036e+01  6.96189226e+01  2.30239240e+02]
beta-Ag nocc = 2  HOMO = -1.30597219540325  LUMO = -0.137280715628379
   mo_energy = [-1.62465920e+01 -1.30597220e+00 -1.37280716e-01 -3.71326328e-02
 -3.42502277e-02 -1.62040684e-02  1.67211618e-01  1.78976315e-01
  4.47864109e-01  8.29527514e-01  8.48325405e-01  8.50329122e-01
  8.59738072e-01  8.69686021e-01  2.41305250e+00  2.80370581e+00
  2.83691702e+00  2.84621075e+00  2.87739223e+00  2.87896474e+00
  7.92337274e+00  7.94468916e+00  8.00961577e+00  8.89320839e+00
  8.98327775e+00  1.02775970e+01  2.92926651e+01  2.93661511e+01
  3.71845534e+01  1.09574775e+02  1.09612625e+02  1.24392036e+02
  5.14690947e+02]
beta-B1g nocc = 0
   mo_energy = [-3.42502277e-02  1.78976315e-01  8.50329122e-01  8.59738072e-01
  8.69686021e-01  2.84621075e+00  2.87739223e+00  2.87896474e+00
  7.94468916e+00  8.00961577e+00  8.98327775e+00  2.93661511e+01
  1.09612625e+02]
beta-B2g nocc = 0
   mo_energy = [-3.63885840e-02  1.70043036e-01  8.38365207e-01  8.49444819e-01
  8.54400249e-01  2.82090416e+00  2.83975854e+00  2.85925921e+00
  7.92868726e+00  7.97155857e+00  8.91568478e+00  2.93110319e+01
  1.09584245e+02]
beta-B3g nocc = 0
   mo_energy = [-3.63885840e-02  1.70043036e-01  8.38365207e-01  8.49444819e-01
  8.54400249e-01  2.82090416e+00  2.83975854e+00  2.85925921e+00
  7.92868726e+00  7.97155857e+00  8.91568478e+00  2.93110319e+01
  1.09584245e+02]
beta-Au nocc = 0
   mo_energy = [ 0.16892781  0.86782752  2.83145748  8.64309871 36.15490092]
beta-B1u nocc = 0
   mo_energy = [-4.04635169e-01 -9.10174517e-02 -1.63445821e-02  1.66867255e-01
  1.68927814e-01  3.36283183e-01  8.58921313e-01  8.67827523e-01
  1.77054513e+00  2.80597635e+00  2.83145748e+00  6.57667152e+00
  8.60069783e+00  8.64309871e+00  2.14427679e+01  3.61176086e+01
  3.61549009e+01  6.95969355e+01  2.30224630e+02]
beta-B2u nocc = 0
   mo_energy = [-3.27716755e-01 -8.58254272e-02 -8.35852239e-03  1.67382601e-01
  1.71533316e-01  3.67746401e-01  8.61136151e-01  8.79214879e-01
  1.83271467e+00  2.81229739e+00  2.86426626e+00  6.65744518e+00
  8.61124140e+00  8.69712145e+00  2.15161462e+01  3.61269210e+01
  3.62016808e+01  6.96438227e+01  2.30246514e+02]
beta-B3u nocc = 0
   mo_energy = [-3.27716755e-01 -8.58254272e-02 -8.35852239e-03  1.67382601e-01
  1.71533316e-01  3.67746401e-01  8.61136151e-01  8.79214879e-01
  1.83271467e+00  2.81229739e+00  2.86426626e+00  6.65744518e+00
  8.61124140e+00  8.69712145e+00  2.15161462e+01  3.61269210e+01
  3.62016808e+01  6.96438227e+01  2.30246514e+02]
multiplicity <S^2> = 2.0069738  2S+1 = 3.0046456
E1 = -70.05778801046102  Ecoul = 16.164512251755507
cycle= 49 E= -53.8932757587055  delta_E=    0  |g|= 7.41e-13  |ddm|= 1.65e-12
    CPU time for cycle= 49      0.34 sec, wall time      0.09 sec
diis-norm(errvec)=1.35491e-12
Linear dependence found in DIIS error vectors.
diis-c [-2.89052492e-16  1.25000000e-01  1.25000000e-01  1.25000000e-01
  1.25000000e-01  1.25000000e-01  1.25000000e-01  1.25000000e-01
  1.25000000e-01]
alpha HOMO (B2u) = -1.11641129733959  LUMO (B1u) = -0.460394528762489
alpha irrep_nelec = [2, 0, 0, 0, 0, 0, 1, 1]
beta  irrep_nelec = [2, 0, 0, 0, 0, 0, 0, 0]
alpha-Ag nocc = 2  HOMO = -1.62293848493532  LUMO = -0.144081829271977
   mo_energy = [-1.63204382e+01 -1.62293848e+00 -1.44081829e-01 -3.76739164e-02
 -3.57087473e-02 -2.38629781e-02  1.61665718e-01  1.63012243e-01
  4.13011041e-01  7.83418248e-01  7.98432288e-01  8.46714156e-01
  8.49381483e-01  8.57516181e-01  2.33703404e+00  2.71862224e+00
  2.73807351e+00  2.82656787e+00  2.83362707e+00  2.85509869e+00
  7.89294811e+00  7.90594526e+00  7.94512882e+00  8.83341401e+00
  8.84773413e+00  1.02084572e+01  2.92616502e+01  2.92986660e+01
  3.71519842e+01  1.09565246e+02  1.09592596e+02  1.24381008e+02
  5.14687831e+02]
alpha-B1g nocc = 0
   mo_energy = [-3.57087473e-02  1.63012243e-01  7.83418248e-01  8.49381483e-01
  8.57516181e-01  2.71862224e+00  2.83362707e+00  2.85509869e+00
  7.90594526e+00  7.94512882e+00  8.84773413e+00  2.92986660e+01
  1.09592596e+02]
alpha-B2g nocc = 0
   mo_energy = [-3.71723439e-02  1.61817025e-01  7.93921841e-01  8.47377002e-01
  8.52753032e-01  2.73233532e+00  2.82832698e+00  2.84252292e+00
  7.89619401e+00  7.92223927e+00  8.83688247e+00  2.92708984e+01
  1.09572087e+02]
alpha-B3g nocc = 0
   mo_energy = [-3.71723439e-02  1.61817025e-01  7.93921841e-01  8.47377002e-01
  8.52753032e-01  2.73233532e+00  2.82832698e+00  2.84252292e+00
  7.89619401e+00  7.92223927e+00  8.83688247e+00  2.92708984e+01
  1.09572087e+02]
alpha-Au nocc = 0
   mo_energy = [ 0.16849052  0.85921944  2.78703804  8.56655587 36.10749581]
alpha-B1u nocc = 0
   mo_energy = [-4.60394529e-01 -9.33070178e-02 -1.97105751e-02  1.66596043e-01
  1.68490520e-01  3.20976744e-01  8.53575147e-01  8.59219436e-01
  1.74207338e+00  2.77720799e+00  2.78703804e+00  6.54599954e+00
  8.54929717e+00  8.56655587e+00  2.14215233e+01  3.60853684e+01
  3.61074958e+01  6.95874360e+01  2.30221465e+02]
alpha-B2u nocc = 1  HOMO = -1.11641129733959  LUMO = -0.0974046190848895
   mo_energy = [-1.11641130e+00 -9.74046191e-02 -2.58407592e-02  1.67068329e-01
  1.70884997e-01  2.88153721e-01  8.54974917e-01  8.66385194e-01
  1.69776238e+00  2.77965699e+00  2.79938225e+00  6.54426577e+00
  8.55360625e+00  8.58822087e+00  2.14529930e+01  3.60908970e+01
  3.61352036e+01  6.96189226e+01  2.30239240e+02]
alpha-B3u nocc = 1  HOMO = -1.1164112973396  LUMO = -0.0974046190848863
   mo_energy = [-1.11641130e+00 -9.74046191e-02 -2.58407592e-02  1.67068329e-01
  1.70884997e-01  2.88153721e-01  8.54974917e-01  8.66385194e-01
  1.69776238e+00  2.77965699e+00  2.79938225e+00  6.54426577e+00
  8.55360625e+00  8.58822087e+00  2.14529930e+01  3.60908970e+01
  3.61352036e+01  6.96189226e+01  2.30239240e+02]
beta-Ag nocc = 2  HOMO = -1.30597219540316  LUMO = -0.137280715628354
   mo_energy = [-1.62465920e+01 -1.30597220e+00 -1.37280716e-01 -3.71326328e-02
 -3.42502277e-02 -1.62040684e-02  1.67211618e-01  1.78976315e-01
  4.47864109e-01  8.29527514e-01  8.48325405e-01  8.50329122e-01
  8.59738072e-01  8.69686021e-01  2.41305250e+00  2.80370581e+00
  2.83691702e+00  2.84621075e+00  2.87739223e+00  2.87896474e+00
  7.92337274e+00  7.94468916e+00  8.00961577e+00  8.89320839e+00
  8.98327775e+00  1.02775970e+01  2.92926651e+01  2.93661511e+01
  3.71845534e+01  1.09574775e+02  1.09612625e+02  1.24392036e+02
  5.14690947e+02]
beta-B1g nocc = 0
   mo_energy = [-3.42502277e-02  1.78976315e-01  8.50329122e-01  8.59738072e-01
  8.69686021e-01  2.84621075e+00  2.87739223e+00  2.87896474e+00
  7.94468916e+00  8.00961577e+00  8.98327775e+00  2.93661511e+01
  1.09612625e+02]
beta-B2g nocc = 0
   mo_energy = [-3.63885840e-02  1.70043036e-01  8.38365207e-01  8.49444819e-01
  8.54400249e-01  2.82090416e+00  2.83975854e+00  2.85925921e+00
  7.92868726e+00  7.97155857e+00  8.91568478e+00  2.93110319e+01
  1.09584245e+02]
beta-B3g nocc = 0
   mo_energy = [-3.63885840e-02  1.70043036e-01  8.38365207e-01  8.49444819e-01
  8.54400249e-01  2.82090416e+00  2.83975854e+00  2.85925921e+00
  7.92868726e+00  7.97155857e+00  8.91568478e+00  2.93110319e+01
  1.09584245e+02]
beta-Au nocc = 0
   mo_energy = [ 0.16892781  0.86782752  2.83145748  8.64309871 36.15490092]
beta-B1u nocc = 0
   mo_energy = [-4.04635169e-01 -9.10174517e-02 -1.63445821e-02  1.66867255e-01
  1.68927814e-01  3.36283183e-01  8.58921313e-01  8.67827523e-01
  1.77054513e+00  2.80597635e+00  2.83145748e+00  6.57667152e+00
  8.60069783e+00  8.64309871e+00  2.14427679e+01  3.61176086e+01
  3.61549009e+01  6.95969355e+01  2.30224630e+02]
beta-B2u nocc = 0
   mo_energy = [-3.27716755e-01 -8.58254272e-02 -8.35852239e-03  1.67382601e-01
  1.71533316e-01  3.67746401e-01  8.61136151e-01  8.79214879e-01
  1.83271467e+00  2.81229739e+00  2.86426626e+00  6.65744518e+00
  8.61124140e+00  8.69712145e+00  2.15161462e+01  3.61269210e+01
  3.62016808e+01  6.96438227e+01  2.30246514e+02]
beta-B3u nocc = 0
   mo_energy = [-3.27716755e-01 -8.58254272e-02 -8.35852239e-03  1.67382601e-01
  1.71533316e-01  3.67746401e-01  8.61136151e-01  8.79214879e-01
  1.83271467e+00  2.81229739e+00  2.86426626e+00  6.65744518e+00
  8.61124140e+00  8.69712145e+00  2.15161462e+01  3.61269210e+01
  3.62016808e+01  6.96438227e+01  2.30246514e+02]
multiplicity <S^2> = 2.0069738  2S+1 = 3.0046456
E1 = -70.05778801046102  Ecoul = 16.1645122517555
cycle= 50 E= -53.8932757587055  delta_E= -1.42e-14  |g|= 8.7e-13  |ddm|= 9.33e-13
    CPU time for cycle= 50      0.34 sec, wall time      0.09 sec
alpha HOMO (B2u) = -1.11641129733963  LUMO (B1u) = -0.460394528762474
alpha irrep_nelec = [2, 0, 0, 0, 0, 0, 1, 1]
beta  irrep_nelec = [2, 0, 0, 0, 0, 0, 0, 0]
alpha-Ag nocc = 2  HOMO = -1.62293848493531  LUMO = -0.144081829271981
   mo_energy = [-1.63204382e+01 -1.62293848e+00 -1.44081829e-01 -3.76739164e-02
 -3.57087473e-02 -2.38629781e-02  1.61665718e-01  1.63012243e-01
  4.13011041e-01  7.83418248e-01  7.98432288e-01  8.46714156e-01
  8.49381483e-01  8.57516181e-01  2.33703404e+00  2.71862224e+00
  2.73807351e+00  2.82656787e+00  2.83362707e+00  2.85509869e+00
  7.89294811e+00  7.90594526e+00  7.94512882e+00  8.83341401e+00
  8.84773413e+00  1.02084572e+01  2.92616502e+01  2.92986660e+01
  3.71519842e+01  1.09565246e+02  1.09592596e+02  1.24381008e+02
  5.14687831e+02]
alpha-B1g nocc = 0
   mo_energy = [-3.57087473e-02  1.63012243e-01  7.83418248e-01  8.49381483e-01
  8.57516181e-01  2.71862224e+00  2.83362707e+00  2.85509869e+00
  7.90594526e+00  7.94512882e+00  8.84773413e+00  2.92986660e+01
  1.09592596e+02]
alpha-B2g nocc = 0
   mo_energy = [-3.71723439e-02  1.61817025e-01  7.93921841e-01  8.47377002e-01
  8.52753032e-01  2.73233532e+00  2.82832698e+00  2.84252292e+00
  7.89619401e+00  7.92223927e+00  8.83688247e+00  2.92708984e+01
  1.09572087e+02]
alpha-B3g nocc = 0
   mo_energy = [-3.71723439e-02  1.61817025e-01  7.93921841e-01  8.47377002e-01
  8.52753032e-01  2.73233532e+00  2.82832698e+00  2.84252292e+00
  7.89619401e+00  7.92223927e+00  8.83688247e+00  2.92708984e+01
  1.09572087e+02]
alpha-Au nocc = 0
   mo_energy = [ 0.16849052  0.85921944  2.78703804  8.56655587 36.10749581]
alpha-B1u nocc = 0
   mo_energy = [-4.60394529e-01 -9.33070178e-02 -1.97105751e-02  1.66596043e-01
  1.68490520e-01  3.20976744e-01  8.53575147e-01  8.59219436e-01
  1.74207338e+00  2.77720799e+00  2.78703804e+00  6.54599954e+00
  8.54929717e+00  8.56655587e+00  2.14215233e+01  3.60853684e+01
  3.61074958e+01  6.95874360e+01  2.30221465e+02]
alpha-B2u nocc = 1  HOMO = -1.11641129733963  LUMO = -0.0974046190848899
   mo_energy = [-1.11641130e+00 -9.74046191e-02 -2.58407592e-02  1.67068329e-01
  1.70884997e-01  2.88153721e-01  8.54974917e-01  8.66385194e-01
  1.69776238e+00  2.77965699e+00  2.79938225e+00  6.54426577e+00
  8.55360625e+00  8.58822087e+00  2.14529930e+01  3.60908970e+01
  3.61352036e+01  6.96189226e+01  2.30239240e+02]
alpha-B3u nocc = 1  HOMO = -1.11641129733963  LUMO = -0.0974046190848904
   mo_energy = [-1.11641130e+00 -9.74046191e-02 -2.58407592e-02  1.67068329e-01
  1.70884997e-01  2.88153721e-01  8.54974917e-01  8.66385194e-01
  1.69776238e+00  2.77965699e+00  2.79938225e+00  6.54426577e+00
  8.55360625e+00  8.58822087e+00  2.14529930e+01  3.60908970e+01
  3.61352036e+01  6.96189226e+01  2.30239240e+02]
beta-Ag nocc = 2  HOMO = -1.30597219540288  LUMO = -0.137280715628379
   mo_energy = [-1.62465920e+01 -1.30597220e+00 -1.37280716e-01 -3.71326328e-02
 -3.42502277e-02 -1.62040684e-02  1.67211618e-01  1.78976315e-01
  4.47864109e-01  8.29527514e-01  8.48325405e-01  8.50329122e-01
  8.59738072e-01  8.69686021e-01  2.41305250e+00  2.80370581e+00
  2.83691702e+00  2.84621075e+00  2.87739223e+00  2.87896474e+00
  7.92337274e+00  7.94468916e+00  8.00961577e+00  8.89320839e+00
  8.98327775e+00  1.02775970e+01  2.92926651e+01  2.93661511e+01
  3.71845534e+01  1.09574775e+02  1.09612625e+02  1.24392036e+02
  5.14690947e+02]
beta-B1g nocc = 0
   mo_energy = [-3.42502277e-02  1.78976315e-01  8.50329122e-01  8.59738072e-01
  8.69686021e-01  2.84621075e+00  2.87739223e+00  2.87896474e+00
  7.94468916e+00  8.00961577e+00  8.98327775e+00  2.93661511e+01
  1.09612625e+02]
beta-B2g nocc = 0
   mo_energy = [-3.63885840e-02  1.70043036e-01  8.38365207e-01  8.49444819e-01
  8.54400249e-01  2.82090416e+00  2.83975854e+00  2.85925921e+00
  7.92868726e+00  7.97155857e+00  8.91568478e+00  2.93110319e+01
  1.09584245e+02]
beta-B3g nocc = 0
   mo_energy = [-3.63885840e-02  1.70043036e-01  8.38365207e-01  8.49444819e-01
  8.54400249e-01  2.82090416e+00  2.83975854e+00  2.85925921e+00
  7.92868726e+00  7.97155857e+00  8.91568478e+00  2.93110319e+01
  1.09584245e+02]
beta-Au nocc = 0
   mo_energy = [ 0.16892781  0.86782752  2.83145748  8.64309871 36.15490092]
beta-B1u nocc = 0
   mo_energy = [-4.04635169e-01 -9.10174517e-02 -1.63445821e-02  1.66867255e-01
  1.68927814e-01  3.36283183e-01  8.58921313e-01  8.67827523e-01
  1.77054513e+00  2.80597635e+00  2.83145748e+00  6.57667152e+00
  8.60069783e+00  8.64309871e+00  2.14427679e+01  3.61176086e+01
  3.61549009e+01  6.95969355e+01  2.30224630e+02]
beta-B2u nocc = 0
   mo_energy = [-3.27716755e-01 -8.58254272e-02 -8.35852239e-03  1.67382601e-01
  1.71533316e-01  3.67746401e-01  8.61136151e-01  8.79214879e-01
  1.83271467e+00  2.81229739e+00  2.86426626e+00  6.65744518e+00
  8.61124140e+00  8.69712145e+00  2.15161462e+01  3.61269210e+01
  3.62016808e+01  6.96438227e+01  2.30246514e+02]
beta-B3u nocc = 0
   mo_energy = [-3.27716755e-01 -8.58254272e-02 -8.35852239e-03  1.67382601e-01
  1.71533316e-01  3.67746401e-01  8.61136151e-01  8.79214879e-01
  1.83271467e+00  2.81229739e+00  2.86426626e+00  6.65744518e+00
  8.61124140e+00  8.69712145e+00  2.15161462e+01  3.61269210e+01
  3.62016808e+01  6.96438227e+01  2.30246514e+02]
multiplicity <S^2> = 2.0069738  2S+1 = 3.0046456
E1 = -70.05778801046112  Ecoul = 16.164512251755635
Extra cycle  E= -53.8932757587055  delta_E= 4.26e-14  |g|= 6.06e-13  |ddm|= 9.33e-13
    CPU time for scf_cycle     23.25 sec, wall time      5.88 sec
    CPU time for SCF     23.26 sec, wall time      5.88 sec
converged SCF energy = -53.8932757587055  <S^2> = 2.0069738  2S+1 = 3.0046456
irreps of each MO ['Ag' 'Ag' 'B2u' 'B3u' 'B1u' 'Ag' 'B2u' 'B3u' 'B1u' 'Ag' 'B2g' 'B3g' 'Ag'
 'B1g' 'B2u' 'B3u' 'Ag' 'B1u' 'Ag' 'B2g' 'B3g' 'Ag' 'B1g' 'B1u' 'B2u'
 'B3u' 'Au' 'B1u' 'B2u' 'B3u' 'B2u' 'B3u' 'B1u' 'Ag' 'Ag' 'B1g' 'B2g'
 'B3g' 'Ag' 'Ag' 'B2g' 'B3g' 'Ag' 'B1g' 'B2g' 'B3g' 'B1u' 'B2u' 'B3u' 'Ag'
 'B1g' 'Au' 'B1u' 'B2u' 'B3u' 'B2u' 'B3u' 'B1u' 'Ag' 'Ag' 'B1g' 'B2g'
 'B3g' 'Ag' 'B1u' 'B2u' 'B3u' 'Au' 'B1u' 'B2u' 'B3u' 'Ag' 'B2g' 'B3g' 'Ag'
 'B1g' 'B2g' 'B3g' 'Ag' 'B1g' 'B2u' 'B3u' 'B1u' 'Ag' 'B2g' 'B3g' 'Ag'
 'B1g' 'B2g' 'B3g' 'Ag' 'B1g' 'B1u' 'B2u' 'B3u' 'Au' 'B1u' 'B2u' 'B3u'
 'Ag' 'B2g' 'B3g' 'Ag' 'B1g' 'Ag' 'B1u' 'B2u' 'B3u' 'Ag' 'B2g' 'B3g' 'Ag'
 'B1g' 'B1u' 'B2u' 'B3u' 'Au' 'B1u' 'B2u' 'B3u' 'Ag' 'B1u' 'B2u' 'B3u'
 'Ag' 'B2g' 'B3g' 'Ag' 'B1g' 'Ag' 'B1u' 'B2u' 'B3u' 'Ag']
irreps of each MO ['Ag' 'Ag' 'B1u' 'B2u' 'B3u' 'Ag' 'B1u' 'B2u' 'B3u' 'Ag' 'B2g' 'B3g' 'Ag'
 'B1g' 'B1u' 'Ag' 'B2u' 'B3u' 'B1u' 'Ag' 'B2u' 'B3u' 'Au' 'B1u' 'B2g'
 'B3g' 'B2u' 'B3u' 'Ag' 'B1g' 'B1u' 'B2u' 'B3u' 'Ag' 'Ag' 'B2g' 'B3g' 'Ag'
 'B2g' 'B3g' 'Ag' 'B1g' 'B2g' 'B3g' 'B1u' 'Ag' 'B1g' 'B2u' 'B3u' 'Au'
 'B1u' 'Ag' 'B1g' 'B2u' 'B3u' 'B1u' 'B2u' 'B3u' 'Ag' 'Ag' 'B1u' 'B2u'
 'B3u' 'B2g' 'B3g' 'Au' 'B1u' 'Ag' 'B2g' 'B3g' 'Ag' 'B1g' 'B2g' 'B3g'
 'B2u' 'B3u' 'Ag' 'B1g' 'Ag' 'B1g' 'B1u' 'B2u' 'B3u' 'Ag' 'B2g' 'B3g' 'Ag'
 'B1g' 'B2g' 'B3g' 'Ag' 'B1g' 'B1u' 'B2u' 'B3u' 'Au' 'B1u' 'B2u' 'B3u'
 'Ag' 'B2g' 'B3g' 'Ag' 'B1g' 'Ag' 'B1u' 'B2u' 'B3u' 'Ag' 'B2g' 'B3g' 'Ag'
 'B1g' 'B1u' 'B2u' 'B3u' 'Au' 'B1u' 'B2u' 'B3u' 'Ag' 'B1u' 'B2u' 'B3u'
 'Ag' 'B2g' 'B3g' 'Ag' 'B1g' 'Ag' 'B1u' 'B2u' 'B3u' 'Ag']
irreps of each MO ['Ag' 'Ag' 'B3u' 'B2u' 'B1u' 'Ag' 'B1u' 'B2u' 'B3u' 'Ag' 'B3g' 'B2g' 'B1g'
 'Ag' 'Ag' 'B1u' 'B3u' 'B2u' 'Ag' 'B3g' 'B2g' 'B1g' 'Ag' 'B1u' 'B2u' 'B3u'
 'Au' 'B1u' 'B2u' 'B3u' 'B3u' 'B2u' 'B1u' 'Ag' 'B1g' 'Ag' 'B2g' 'B3g' 'Ag'
 'Ag' 'B3g' 'B2g' 'B1g' 'Ag' 'B3g' 'B2g' 'B1u' 'B3u' 'B2u' 'Ag' 'B1g'
 'B1u' 'Au' 'B3u' 'B2u' 'B3u' 'B2u' 'B1u' 'Ag' 'Ag' 'B1g' 'B2g' 'B3g' 'Ag'
 'B1u' 'B2u' 'B3u' 'B1u' 'Au' 'B2u' 'B3u' 'Ag' 'B3g' 'B2g' 'B1g' 'Ag'
 'B3g' 'B2g' 'Ag' 'B1g' 'B2u' 'B3u' 'B1u' 'Ag' 'B2g' 'B3g' 'Ag' 'B1g'
 'B3g' 'B2g' 'Ag' 'B1g' 'B1u' 'B2u' 'B3u' 'B1u' 'Au' 'B3u' 'B2u' 'Ag'
 'B2g' 'B3g' 'Ag' 'B1g' 'Ag' 'B1u' 'B2u' 'B3u' 'Ag' 'B3g' 'B2g' 'Ag' 'B1g'
 'B1u' 'B2u' 'B3u' 'B1u' 'Au' 'B2u' 'B3u' 'Ag' 'B1u' 'B2u' 'B3u' 'Ag'
 'B3g' 'B2g' 'B1g' 'Ag' 'Ag' 'B1u' 'B2u' 'B3u' 'Ag']
