[Molden Format]
[ATOMS] AU
 Be    1    4        0.0000000000        0.0000000000        0.0000000000
[GTO]
   1   0
 s    7 1.00
  0.3016787100D+02  0.1543289000D+00
  0.5495115300D+01  0.5353281000D+00
  0.1487192700D+01  0.4446345000D+00
  0.1314833100D+01  0.0000000000D+00
  0.3055389000D+00  0.0000000000D+00
  0.9937070000D-01  0.0000000000D+00
  0.7735000000D-01  0.0000000000D+00
 s    7 1.00
  0.3016787100D+02  0.0000000000D+00
  0.5495115300D+01  0.0000000000D+00
  0.1487192700D+01  0.0000000000D+00
  0.1314833100D+01 -0.9996720000D-01
  0.3055389000D+00  0.3995128000D+00
  0.9937070000D-01  0.7001154000D+00
  0.7735000000D-01  0.0000000000D+00
 s    7 1.00
  0.3016787100D+02  0.0000000000D+00
  0.5495115300D+01  0.0000000000D+00
  0.1487192700D+01  0.0000000000D+00
  0.1314833100D+01  0.0000000000D+00
  0.3055389000D+00  0.0000000000D+00
  0.9937070000D-01  0.0000000000D+00
  0.7735000000D-01  0.1000000000D+01
 p    3 1.00
  0.1314833100D+01  0.1559162000D+00
  0.3055389000D+00  0.6076837000D+00
  0.9937070000D-01  0.3919573000D+00
 
[5D]
[7F]
[9G]
[MO]
 Ene=       -4.2077
 Spin= Alpha
 Occup=        1.0000
   1     -0.9877960746
   2     -0.0888866314
   3      0.0597240049
   4      0.0000000000
   5      0.0000000000
   6      0.0000000000
 Ene=       -0.0377
 Spin= Alpha
 Occup=        1.0000
   1     -0.2314831599
   2      0.1451671117
   3      0.8823019775
   4      0.0000000000
   5      0.0000000000
   6      0.0000000000
 Ene=        0.1090
 Spin= Alpha
 Occup=        1.0000
   1      0.0000000000
   2      0.0000000000
   3      0.0000000000
   4      1.0000000000
   5      0.0000000000
   6      0.0000000000
 Ene=        0.4861
 Spin= Alpha
 Occup=        0.0000
   1      0.0000000000
   2      0.0000000000
   3      0.0000000000
   4      0.0000000000
   5      0.0000000000
   6      1.0000000000
 Ene=        0.4861
 Spin= Alpha
 Occup=        0.0000
   1      0.0000000000
   2      0.0000000000
   3      0.0000000000
   4      0.0000000000
   5      1.0000000000
   6      0.0000000000
 Ene=        0.6845
 Spin= Alpha
 Occup=        0.0000
   1     -0.2772396606
   2      3.2514661132
   3     -3.0798416228
   4      0.0000000000
   5      0.0000000000
   6      0.0000000000
 Ene=       -4.1863
 Spin= Beta
 Occup=        1.0000
   1     -0.9895748060
   2     -0.0780594452
   3      0.0535100718
   4      0.0000000000
   5      0.0000000000
   6      0.0000000000
 Ene=        0.0421
 Spin= Beta
 Occup=        1.0000
   1     -0.1972231691
   2     -0.2000355907
   3      1.2036180874
   4      0.0000000000
   5      0.0000000000
   6      0.0000000000
 Ene=        0.5668
 Spin= Beta
 Occup=        0.0000
   1      0.0000000000
   2      0.0000000000
   3      0.0000000000
   4      1.0000000000
   5      0.0000000000
   6      0.0000000000
 Ene=        0.5183
 Spin= Beta
 Occup=        0.0000
   1      0.0000000000
   2      0.0000000000
   3      0.0000000000
   4      0.0000000000
   5      0.0000000000
   6      1.0000000000
 Ene=        0.5183
 Spin= Beta
 Occup=        0.0000
   1      0.0000000000
   2      0.0000000000
   3      0.0000000000
   4      0.0000000000
   5      1.0000000000
   6      0.0000000000
 Ene=        0.7416
 Spin= Beta
 Occup=        0.0000
   1     -0.2967020266
   2      3.2488303579
   3     -2.9691561646
   4      0.0000000000
   5      0.0000000000
   6      0.0000000000
