 **********************************************************************
                          MRCC program system
 **********************************************************************
 
                              Written by
     Mihaly Kallay, Peter R. Nagy, David Mester, Laszlo Gyevi-Nagy,
        Jozsef Csoka, P. Bernat Szabo, Zoltan Rolik, Gyula Samu,
      Bence Hegely, Bence Ladoczki, Klara Petrov, Jozsef Csontos,
     Adam Ganyecz, Istvan Ladjanszki, Lorant Szegedy, Mate Farkas,
          Pal D. Mezei, Reka A. Horvath, and Balazs D. Lorincz
 
        Department of Physical Chemistry and Materials Science
            Budapest University of Technology and Economics
                  Budapest P.O.Box 91, H-1521 Hungary
 
                              www.mrcc.hu
 
                            Version: 25.1.0

 ************************ 2025-10-10 00:00:05 *************************
 Executing minp...

 Reading input from MINP...
 
 Input file:
 
basis=STO-3G-EMSL
#iface=cfour
uncontract=off
calc=CCSD
ccprog=mrcc
mem=4GB
core=frozen
itol=18
scftol=13
cctol=6
ccmaxit=999
scfmaxit=9999
scfiguess=ao
scftype=UHF
#rohftype=semicanonical
rest=2
charge=+0
mult=4
#refdet=serialno
symm=5
occ=2,0,0,0,0,1,1,1/2,0,0,0,0,0,0,0
geom
N

#Li 1 R
#R=3.065

#unit=angstroms

tprint=0.01
verbosity=3
#nstate=4
 
 
 Checking keyword combinations...
 
 Keywords:
 
 active=none
 agrid=ld0006-ld0590
 agrid_pssp=ld0006-ld0194
 agrid_pssp_sm=ld0006-ld0074
 basis=sto-3g-emsl
 basis_sm=none
 basopt=off
 bfbasis=none
 bfgsmem=10
 bfgstol=1.0d-3
 boysalg=jacobi
 bpcompo=0.985
 bpcompv=0.98
 bpdfo=0.985
 bpocc=0.985
 bppdo=0.985
 bppdv=0.98
 bpedo=0.985
 bpedv=0.98
 bp_subsyso=0.95
 bp_subsysv=0.95
 cabscorr=off
 cabsdual=off
 calc=ccsd
 ccmaxit=999
 ccprog=mrcc
 ccsdalg=disk
 ccsdmkl=seq
 ccsdrest=off
 ccsdthreads=2
 cctol=6
 charge=+0
 cialg=disk
 ciguess=off
 cmpgrp=auto
 comprest=off
 coord_sys=ric
 core=frozen
 corembed=off
 csapprox=off
 cvs=off
 dboc=off
 deltaf12=off
 delocsomofact=
 dendec=cholesky
 dens=0
 denscorr=0
 dfalg=lineq
 dfbasis_cab=none
 dfbasis_cor=none
 dfbasis_scf=none
 dfbasis_scf_sm=auto
 dfintran=ovirt
 dft=off
 dhexc=adc(2)
 diag=david
 docc=
 domrad=10.d0
 drpaalg=fit
 dual=off
 dual_df=off
 dyson=off
 ecp=auto
 edisp=off
 edisp_embed=off
 embed=off
 epairestfact=off
 epairscale=1.d0
 etemp=300
 epert=none
 eps=
 espcharge=off
 excrad=0.d0
 excrad_f12=0.d0
 excrad_fin=0.000000000D+00
 fastdbbsc=v2
 fitting=coulomb
 fmm=off
 fmmord=8
 fnonorb=
 freq=off
 gamma=1.d0
 gauss=spher
 geom=zmat
 gopt=off
 ghost=none
 gtol=7
 grdens=off
 grid=auto
 grid_sm=auto
 gridbatch_cos=2000
 grtol=10
 guido_ct=off
 hamilton=dc
 iface=none
 incore=off
 intalg=auto
 ip_ea=off
 itol=18
 laptol=1.d-2
 lccoporder=trffirst
 lcorthr=normal
 lccrest=off
 ldfgrad_tol=8
 lmp2dens=on
 lnoepso=0.d0
 lnoepsv=1e-6
 localcc=off
 localcorrsymm=off
 locintrf=disk
 mact=
 maxact=off
 maxdim=200
 maxex=0
 maxmicroit=100
 mcscfiguess=hf
 mem=4gb
 mmprog=
 molden=on
 mp2ongrid=off
 mpitasks=1
 mulmet=0
 mult=4
 nab=off
 nacto=0
 nactv=0
 naf_amp=3.16d-3
 naf_cor=off
 naf_f12=off
 naf_scf=off
 nafalg=albe
 nafdens=off
 naftyp=
 nchol=auto
 ndeps=1e-3
 nstate=1
 nsing=0
 nto=off
 ntrip=0
 num_grad=off
 occ=2,0,0,0,0,1,1,1/2,0,0,0,0,0,0,0
 occri=off
 oniom=off
 oniom_eechg=off
 oniom_pcm=off
 oniom_qcorr=off
 optalg=
 optmaxit=50
 optetol=1e-6
 optex=0
 optgtol=1e-4
 optstol=1e-3
 orblocc=off
 orbloce=off
 orbloco=off
 orblocv=off
 orblocguess=cholesky
 osveps=1e-3
 ovirt=off
 ovltol=1e-7
 ovosnorb=80.0
 pao_subsys_tol=1e-3
 pao_tol=1e-3
 pcm=off
 popul=off
 pressure=100000
 pssp=off
 ptfreq=0.0
 ptthreads=2
 qmreg=
 qmmm=off
 qro=off
 qscf=off
 redcost_exc=off
 redcost_tddft=off
 refdet=none
 rest=2
 rgrid=log3
 rism=off
 rohfcore=semicanonical
 rohftype=standard
 scfalg=auto
 scf_conv=auto
 scfdamp=0.0d0
 scfdamp_mode=off
 scfdamp_end=9999
 scfdamp_dampstep=0.d0
 scfdamp_dtol=0.0d0
 scfdamp_maxfact=0.0d0
 scfdamp_minfact=0.0d0
 scfdiis=on
 scfdiis_dtol=0.0d0
 scfdiis_end=9999
 scfdiis_start=2
 scfdiis_step=1
 scfdiis_watch=off
 scfdiis_wrange=10
 scfdiis_wlimit=5
 scfdiis_delmax=2
 scfdtol=14
 scfext=10
 scfguessdens=
 scfiguess=ao
 scfloc=off
 scflshift=0.20
 scflshift_end=8
 scflshift_dtol=0.0
 scflshift_gaptol=0.20
 scfmaxit=9999
 scftype=uhf
 scftol=13
 scspe=1.d0
 scsph=1.d0
 scsps=1.2d0
 scsps_t=1.2d0
 scspt=0.33333333333333
 scspt_t=0.33333333333333
 scspv=1.d0
 spairtol=1e-4
 sqmprog=
 subminp=top
 subsys_bopu=on
 symm=5
 talg=occ
 temp=298.15
 test=off
 theodore=off
 tlmo=0.999
 tpao=0.94
 tprint=0.01
 uncontract=off
 unit=angs
 usedisk=2
 verbosity=3
 wpairtol=0.100000000E-05
 ispstart=
 ispend=

 ************************ 2025-10-10 00:00:06 *************************
 Executing integ...

 Allocation of 4096.0 Mbytes of memory...
 
 Number of atoms:                  1
 Charge:                           0
 Number of electrons:              7
 Number of core electrons:         2
 Spin multiplicity:                4
 
                 Cartesian coordinates [bohr]      Atomic mass [AMU]  Z
   1  N     0.00000000    0.00000000    0.00000000    14.003074       7
 
 This molecule is a spherical top.
 
 Rotational constants [cm-1]: 

 
 Point group: Oh  
 Computational point group: D2h 
 
 Cartesian coordinates in standard orientation [bohr]
   1  N     0.00000000    0.00000000    0.00000000
 
 Nuclear repulsion energy [au]:          0.000000000000
 
 
 Basis set information:
 
 Maximum angular momentum: p
 Maximum number of contracted Gaussians:    2
 Maximum number of primitive Gaussians:     6
 Spherical harmonic GTOs are used.
 
   1  N  sto-3g-emsl [ 6s 3p | 2s 1p ]
 
 Basis functions:
            1             2             3             4             5             6             7             8             9            10
    0    1N1s          1N2s          1N1pz         1N1py         1N1px     
 
 Maximum number of basis functions per shell:    3
 Total number of basis functions:      5
 
 
 Character table for point group D2h:
 
          E  C2z C2y C2x  i  Qxy Qxz Qyz 
    Ag    1   1   1   1   1   1   1   1
    B1g   1   1  -1  -1   1   1  -1  -1
    B2g   1  -1   1  -1   1  -1   1  -1
    B3g   1  -1  -1   1   1  -1  -1   1
    Au    1   1   1   1  -1  -1  -1  -1
    B1u   1   1  -1  -1  -1  -1   1   1
    B2u   1  -1   1  -1  -1   1  -1   1
    B3u   1  -1  -1   1  -1   1   1  -1
 
 Number of basis functions per irrep:
    Ag      2
    B1g     0
    B2g     0
    B3g     0
    Au      0
    B1u     1
    B2u     1
    B3u     1
 
 
 Calculation of overlap integrals...
 CPU time [min]:     0.119                   Wall time [min]:     0.014
 
 Calculation of the square root of the overlap matrix...
 Minimum eigenvalue of the overlap matrix: 0.764962E+00
 CPU time [min]:     0.158                   Wall time [min]:     0.016
 
 Calculation of kinetic energy integrals...
 CPU time [min]:     0.166                   Wall time [min]:     0.016
 Calculation of nuclear attraction integrals...
 CPU time [min]:     0.174                   Wall time [min]:     0.016
 
 Calculation of prescreening integrals...
 Memory requirement   0.000 Gb/thread,   0.009 Mb/thread,   0.000 Gb total
 CPU time [min]:     0.198                   Wall time [min]:     0.017
 
 Calculation of two-electron integrals...
 Memory requirement   0.000 Gb/thread,   0.009 Mb/thread,   0.000 Gb total
   5% done.
 100% done.
 CPU time [min]:     0.220                   Wall time [min]:     0.018

 ************************ 2025-10-10 00:00:07 *************************
 Executing scf...

 @scfsetup: integrals taken from disk
            mrcc/integ binary format
 @scfsetup: calc on blockdiagonal matrices
            using symmetry adapted basis
 @scfsetup: diis switched on
 @scfsetup: number of steps to extrapolate from  10
 @scfsetup: tolerance in energy deviation    0.100000E-12
            tolerance in density deviation    0.100000E-13
 @scfsetup: maximum number of iterations:9999
 @scfsetup: unrestricted hf calc
 @scfsetup: starting scf from diagonal ao guess
 @scfsetup: occupation set:
            by user in MINP
 @scfsetup: the forced occuapation is
 ALPHA OCC:   2   0   0   0   0   1   1   1
 BETA  OCC:   2   0   0   0   0   0   0   0
 @scfsetup: Parameter-set for SCF acceleration: normal
 @scfsetup: diis runs from iteration:   2
 @scfsetup: diis runs to iteration:9999
 @scfsetup: diis runs in every iteration
 @scfsetup: diiswatch is disabled                   
 @scfsetup: diis dtol criteria to switch on:      0.0000E+00
           (or the iteration number below is reached)
 @scfsetup: static damping scheme
            iteration step criteria to turn damping off: 3
 @scfsetup: dynamic level shifting
            tolarance in HOMO-LUMO gap:  0.200
            tolarance in density deviation:     0.0000E+00
            iteration step criteria to turn level shifting off: 8
 Allocation of 4096.0 Mbytes of memory...
 ======================================================================
 ITERATION STEP   1
 CPU time [min]:     0.003                   Wall time [min]:     0.018
 

 SCF control                  : initial
 Damping factor/level shift   : 0.000/0.200
 DIIS [start/end/frequency]   :   2 /*** /  1

 Gradient norm:      5.1208E+00
 RMS of alpha [F,P] :                                  1.76116064486821
 RMS of beta  [F,P] :                                  0.56390034580093
 RMS of alpha difference density:                      0.24576112052902
 RMS of beta  difference density:                      0.37519050450947
 Gap [au]:  0.00000000
 ALPHA OCC:   2   0   0   0   0   1   1   1
 BETA  OCC:   2   0   0   0   0   0   0   0
 
 ***HARTREE-FOCK ENERGY IN STEP   1 IS        -55.6496556919044139 [AU]
 ======================================================================
 ITERATION STEP   2
 CPU time [min]:     0.003                   Wall time [min]:     0.020
 

 SCF control                  : diis
 Damping factor/level shift   : 0.000/0.200
 DIIS [start/end/frequency]   :   2 /*** /  1

 Gradient norm:      1.5796E-01
 DIIS is running in this iteration step.
 RMS of alpha [F,P] :                                  0.00000000000000
 RMS of beta  [F,P] :                                  0.00000000000000
 RMS of alpha difference density:                      0.00000000000000
 RMS of beta  difference density:                      0.00000000000000
 Gap [au]:  0.00000000
 ALPHA OCC:   2   0   0   0   0   1   1   1
 BETA  OCC:   2   0   0   0   0   0   0   0
 
 ***HARTREE-FOCK ENERGY IN STEP   2 IS        -53.7190101358961130 [AU]
 
 Step comparison  Energy Drift [au]  DIIS error drift  Gradient drift
        1           -1.9306E+00         1.8492E+00       4.9628E+00
        2            5.3719E+01         1.0000E-14       4.9628E+00
 Warning! The energy goes uphill (with respect to previous step).
 ======================================================================
 ITERATION STEP   3
 CPU time [min]:     0.003                   Wall time [min]:     0.021
 

 SCF control                  : diis
 Damping factor/level shift   : 0.000/0.200
 DIIS [start/end/frequency]   :   2 /*** /  1

 Gradient norm:      1.2740E-15
 DIIS is running in this iteration step.
 RMS of alpha [F,P] :                                  0.00000000000000
 RMS of beta  [F,P] :                                  0.00000000000000
 RMS of alpha difference density:                      0.00000000000000
 RMS of beta  difference density:                      0.00000000000000
 Gap [au]:  0.00000000
 ALPHA OCC:   2   0   0   0   0   1   1   1
 BETA  OCC:   2   0   0   0   0   0   0   0
 
 ***HARTREE-FOCK ENERGY IN STEP   3 IS        -53.7190101358961343 [AU]
 
 Step comparison  Energy Drift [au]  DIIS error drift  Gradient drift
        2            2.1316E-14        -1.3535E-16       1.5796E-01
 Warning! The DIIS error goes uphill (with respect to previous step).
 Warning! The DIIS error goes uphill (with respect to step   2 ).
 ======================================================================
 
 SUCCESS...
 THE SCF ITERATION HAS CONVERGED!
 
                   Ag  B1g B2g B3g Au  B1u B2u B3u 
 FINAL ALPHA OCC:   2   0   0   0   0   1   1   1
 FINAL BETA  OCC:   2   0   0   0   0   0   0   0
 
 ***FINAL HARTREE-FOCK ENERGY:        -53.7190101358961343 [AU]
 
 Expectation value of S^2:  3.7500
 Average multiplicity:      4.0000
 
 Orbital energies [au]:
      Irrep         Alpha          Beta
    1   Ag       -15.344359     -15.277878
    2   Ag        -1.086339      -0.637910
 
    3   B1u       -0.476371       0.368670
    4   B3u       -0.476371       0.368670
    5   B2u       -0.476371       0.368670
 
 
 RETURNING FROM SCF ALGORITHM
 ======================================================================

 ************************ 2025-10-10 00:00:09 *************************
 Executing ovirt...

 ovirt, the routine of orbital optimization and integral transformation 
Fri Oct 10 00:00:09 PDT 2025
 memory =                   4096  Mb             536870912  8 byte word
 mrccboot = T
 scftype  = uhf  
 localcc  = off 
 core     = frozen
 ovirt    = off  
 ccprog   = mrcc
 dfnbasis =                      0
 dfbasis_cor =none                
 lmp2dens = on 
 dens =                      0
 verblev =                      3
 task     =                      4
 epsilon =   0.000000000000000E+000
 lmp2= on 
 localNO  =  F
 localMP2 =  F
 localMP2_TEST =  F
 LMP2_shortcut =  F
 FOCKTR   =  T
 Allocated memory:                    4096  Mb
 onbasis=                     5
 UHF calculation! 
 integral transformation: AOs --- MOs (alpha-alpha)
 # of basis functions, # of int. blocks     5     1
100 % 
 second part
100 %
 integral transformation is completed! 
 integral transformation: AOs ------ MOs (beta-beta)
 # of basis functions, # of int. blocks     5     1
100 % 
 second part
100 %
 integral transformation is completed! 
 integral transformation: AOs ----- MOs (alpha-beta)
# of basis functions, # of int. blocks     5     1
 integral transformation
======================================== 
Fri Oct 10 00:00:10 PDT 2025
  ovirt terminated normally 

 ************************ 2025-10-10 00:00:10 *************************
 Executing goldstone...

 Generation of CC equations in terms of H and T...
 Generation of antisymmetrized Goldstone diagrams...
 Number of diagrams in T^1 equations:    14
 Number of diagrams in T^2 equations:    31
 Translation of diagrams to factorized equations...
 Optimizing intermediate calculation...
 Number of floating-point operations per iteration step:   1.2453E+02
 Probable CPU time per iteration step (hours):            0.00
 Required memory (Mbytes):             0.0
 Number of intermediates:                                  44
 Number of intermediates to be stored:                     20
 Length of intermediate file (Mbytes):             0.0

 ************************ 2025-10-10 00:00:10 *************************
 Executing xmrcc...

 **********************************************************************
 CC(                     2 ) calculation 
 
 
 Allocation of         4096.0 Mbytes of memory...
 Number of spinorbitals:                     8
 Number of alpha electrons:                        4
 Number of beta electrons:                         1
 Spin multiplicity:                     2
 z-component of spin:  1.5
 Spatial symmetry:                      5
 Convergence criterion:  1.0E-06
 Construction of occupation graphs...
 Number of                     0 -fold excitations:                      1
 Number of                     1 -fold excitations:                      0
 Number of                     2 -fold excitations:                      0
 Total number of configurations:                      1
 Calculation of coupling coefficients...
 Length of intermediate file (Mbytes):             0.0
 
 ======================================================================
 
 Memory requirements /Mbyte/: 
               Minimal        Optimal
 Real*8:          0.0576         0.0576
 Integer:         3.2448
 Total:           3.3024         3.3024
 

 ************************ 2025-10-10 00:00:10 *************************
 Executing goldstone...

 Generation of CC equations in terms of H and T...
 Generation of antisymmetrized Goldstone diagrams...
 Number of diagrams in T^1 equations:    14
 Number of diagrams in T^2 equations:    31
 Translation of diagrams to factorized equations...
 Optimizing intermediate calculation...
 Number of floating-point operations per iteration step:   1.2453E+02
 Probable CPU time per iteration step (hours):            0.00
 Required memory (Mbytes):             0.0
 Number of intermediates:                                  44
 Number of intermediates to be stored:                     20
 Length of intermediate file (Mbytes):             0.0

 ************************ 2025-10-10 00:00:10 *************************
 Executing xmrcc...

 **********************************************************************
 CC(                     2 ) calculation 
 
 
 Allocation of         4096.0 Mbytes of memory...
 Number of spinorbitals:                     8
 Number of alpha electrons:                        4
 Number of beta electrons:                         1
 Spin multiplicity:                     2
 z-component of spin:  1.5
 Spatial symmetry:                      5
 Convergence criterion:  1.0E-06
 Construction of occupation graphs...
 Number of                     0 -fold excitations:                      1
 Number of                     1 -fold excitations:                      0
 Number of                     2 -fold excitations:                      0
 Total number of configurations:                      1
 Calculation of coupling coefficients...
 Length of intermediate file (Mbytes):             0.0
 
 ======================================================================
 
 Memory requirements /Mbyte/: 
               Minimal        Optimal
 Real*8:          0.0576         0.0576
 Integer:         3.2448
 Total:           3.3024         3.3024
 

 ************************ 2025-10-10 00:00:11 *************************
 Executing mrcc...

 **********************************************************************
 CCSD calculation                                                       
 
 
 OpenMP parallel version is running.
 Number of CPU cores:  32
 Allocation of            0.1 Mbytes of memory...
 Number of spinorbitals:   8
 Number of alpha electrons:  4
 Number of beta  electrons:  1
 Spin multiplicity: 4
 z-component of spin:  1.5
 Spatial symmetry: 5
 Convergence criterion:  1.0E-06
 Construction of occupation graphs...
 Number of 0-fold excitations: 1
 Number of 1-fold excitations: 0
 Number of 2-fold excitations: 0
 Total number of determinants: 1
 Calculation of coupling coefficients...
 Initial cluster amplitudes are generated.
 Length of intermediate file (Mbytes):       0.0
 Reading integral list from unit 55...
 Sorting integrals...
 Sorting integrals...
 Sorting integrals...
 Sorting integrals...
 Calculation of MP denominators...
 
 Starting CC iteration...
 ======================================================================
 Norm of residual vector:     0.0000E+00
 CPU time [min]:     0.083                   Wall time [min]:     0.004
 
 Iteration  1  CC energy:   -53.71901014  Energy decrease:   0.0000E+00
 ======================================================================
 
 Iteration has converged in  1 steps.
 
 Final results:
 Total CCSD energy [au]:                      -53.719010135896
 Total MP2 energy [au]:                       -53.719010135896
 
 Dominant cluster amplitudes
 Printing threshold:  1.00E-02
 
    1.000000  Reference determinant                                     
 
 ************************ 2025-10-10 00:00:11 *************************
                      Normal termination of mrcc.
 **********************************************************************
