#INFO: **** input file is /lustre09/project/6004934/jaafar1/PySCF-MRCC/Boron/cation/dawCV4Z/RHF/input.py ****
import pyscf
from pyscf import cc, lib, tools, scf, symm, ao2mo
from pyscf.gto.basis import parse_gaussian
from pyscf.scf import atom_hf

name = 'out'
mol = pyscf.M(
    atom = '''
        B
    ''',
    unit = 'angstrom',
    basis = {
            'B' : parse_gaussian.load('B-d-aug-cc-pwCVQZ.gbs', 'B')
    },
    charge = +1,
    spin = 0,
    symmetry = True,
    verbose = 9,
    symmetry_subgroup = 'D2h',
    output = name +'.txt',
    max_memory = 16000,
)

original_AtomSphAverageRHF = atom_hf.AtomSphAverageRHF

class CustomAtomSphAverageRHF(original_AtomSphAverageRHF):
    def __init__(self, mol):
        super().__init__(mol)
        self.max_cycle = 9999
        self.direct_scf = False

atom_hf.AtomSphAverageRHF = CustomAtomSphAverageRHF

mf = mol.RHF().set(
    conv_tol=1e-13,
    max_cycle=9999,
    ddm_tol=1e-12,
    direct_scf=False,
    chkfile=name + '.chk',
    init_guess='atom',
    irrep_nelec={'Ag': 4}
)

mf.kernel()

atom_hf.AtomSphAverageRHF = original_AtomSphAverageRHF

#pyscf.tools.fcidump.from_chkfile_uhf('FCIdump',name+'.chk',tol=1e-18, float_format='% 0.20E',molpro_orbsym=False,orbsym=None)
pyscf.tools.fcidump.from_scf(mf,'fort.55',tol=1e-18, float_format='% 0.20E',molpro_orbsym=False)
#MRCCInterface.run_mrcc(mf, fort_file='fort.55', mrcc_input_file='MINP', tol=1e-18, float_format='% 0.20E', molpro_orbsym=False)
#INFO: ******************** input file end ********************


System: uname_result(system='Linux', node='rc31902', release='5.14.0-687.15.1.el9_8.x86_64', version='#1 SMP PREEMPT_DYNAMIC Thu Jun 11 08:51:45 EDT 2026', machine='x86_64')  Threads 4
Python 3.13.2 (main, Feb  5 2025, 15:06:39) [GCC 13.3.0]
numpy 2.2.2  scipy 1.15.1  h5py 3.13.0
Date: Thu Jun 18 04:54:11 2026
PySCF version 2.10.0
PySCF path  /home/jaafar1/links/projects/rrg-tzeng/jaafar1/VENV/MRCCInterface/lib/python3.13/site-packages/pyscf

[CONFIG] ARGPARSE = False
[CONFIG] DEBUG = False
[CONFIG] MAX_MEMORY = 4000
[CONFIG] TMPDIR = /tmp
[CONFIG] UNIT = angstrom
[CONFIG] VERBOSE = 3
[CONFIG] conf_file = None
[INPUT] verbose = 9
[INPUT] max_memory = 16000 
[INPUT] num. atoms = 1
[INPUT] num. electrons = 4
[INPUT] charge = 1
[INPUT] spin (= nelec alpha-beta = 2S) = 0
[INPUT] symmetry True subgroup D2h
[INPUT] Mole.unit = angstrom
[INPUT] Symbol           X                Y                Z      unit          X                Y                Z       unit  Magmom
[INPUT]  1 B      0.000000000000   0.000000000000   0.000000000000 AA    0.000000000000   0.000000000000   0.000000000000 Bohr   0.0
[INPUT] ---------------- BASIS SET ---------------- 
[INPUT] l, kappa, [nprim/nctr], expnt,             c_1 c_2 ...
[INPUT] B
[INPUT] 0    0    [1    /1   ]  28.788               1
[INPUT] 0    0    [1    /1   ]  10.414               1
[INPUT] 0    0    [12   /2   ]  23870             8.8e-05 -1.8e-05
                                3575              0.000687 -0.000139
                                812.8             0.0036 -0.000725
                                229.7             0.014949 -0.003063
                                74.69             0.051435 -0.010581
                                26.81             0.143302 -0.031365
                                10.32             0.300935 -0.071012
                                4.178             0.403526 -0.132103
                                1.727             0.22534 -0.123072
                                0.4704            0.015407 0.261819
                                0.1896            -0.003955 0.586662
                                0.07394           0.001124 0.290494
[INPUT] 0    0    [1    /1   ]  3.768                1
[INPUT] 0    0    [1    /1   ]  0.4704               1
[INPUT] 0    0    [1    /1   ]  0.1896               1
[INPUT] 0    0    [1    /1   ]  0.07394              1
[INPUT] 0    0    [1    /1   ]  0.02721              1
[INPUT] 0    0    [1    /1   ]  0.01                 1
[INPUT] 1    0    [1    /1   ]  36.971               1
[INPUT] 1    0    [1    /1   ]  11.925               1
[INPUT] 1    0    [1    /1   ]  3.847                1
[INPUT] 1    0    [1    /1   ]  0.5071               1
[INPUT] 1    0    [6    /1   ]  22.26             0.005095
                                5.058             0.033206
                                1.487             0.132314
                                0.5071            0.331818
                                0.1812            0.472063
                                0.06463           0.257979
[INPUT] 1    0    [1    /1   ]  0.1812               1
[INPUT] 1    0    [1    /1   ]  0.06463              1
[INPUT] 1    0    [1    /1   ]  0.01878              1
[INPUT] 1    0    [1    /1   ]  0.00546              1
[INPUT] 2    0    [1    /1   ]  16.574               1
[INPUT] 2    0    [1    /1   ]  3.718                1
[INPUT] 2    0    [1    /1   ]  1.11                 1
[INPUT] 2    0    [1    /1   ]  0.402                1
[INPUT] 2    0    [1    /1   ]  0.145                1
[INPUT] 2    0    [1    /1   ]  0.0466               1
[INPUT] 2    0    [1    /1   ]  0.015                1
[INPUT] 3    0    [1    /1   ]  3.692                1
[INPUT] 3    0    [1    /1   ]  0.882                1
[INPUT] 3    0    [1    /1   ]  0.311                1
[INPUT] 3    0    [1    /1   ]  0.113                1
[INPUT] 3    0    [1    /1   ]  0.0411               1
[INPUT] 4    0    [1    /1   ]  0.673                1
[INPUT] 4    0    [1    /1   ]  0.273                1
[INPUT] 4    0    [1    /1   ]  0.111                1

nuclear repulsion = 0
point group symmetry = SO3, use subgroup D2h
symmetry origin: [0. 0. 0.]
symmetry axis x: [1. 0. 0.]
symmetry axis y: [0. 1. 0.]
symmetry axis z: [0. 0. 1.]
num. orbitals of irrep Ag = 33
num. orbitals of irrep B1g = 13
num. orbitals of irrep B2g = 13
num. orbitals of irrep B3g = 13
num. orbitals of irrep Au = 5
num. orbitals of irrep B1u = 19
num. orbitals of irrep B2u = 19
num. orbitals of irrep B3u = 19
number of shells = 33
number of NR pGTOs = 159
number of NR cGTOs = 134
basis = {'B': [[0, [28.788, 1.0]], [0, [10.414, 1.0]], [0, [23870.0, 8.8e-05, -1.8e-05], [3575.0, 0.000687, -0.000139], [812.8, 0.0036, -0.000725], [229.7, 0.014949, -0.003063], [74.69, 0.051435, -0.010581], [26.81, 0.143302, -0.031365], [10.32, 0.300935, -0.071012], [4.178, 0.403526, -0.132103], [1.727, 0.22534, -0.123072], [0.4704, 0.015407, 0.261819], [0.1896, -0.003955, 0.586662], [0.07394, 0.001124, 0.290494]], [0, [3.768, 1.0]], [0, [0.4704, 1.0]], [0, [0.1896, 1.0]], [0, [0.07394, 1.0]], [0, [0.02721, 1.0]], [0, [0.01, 1.0]], [1, [36.971, 1.0]], [1, [11.925, 1.0]], [1, [3.847, 1.0]], [1, [0.5071, 1.0]], [1, [22.26, 0.005095], [5.058, 0.033206], [1.487, 0.132314], [0.5071, 0.331818], [0.1812, 0.472063], [0.06463, 0.257979]], [1, [0.1812, 1.0]], [1, [0.06463, 1.0]], [1, [0.01878, 1.0]], [1, [0.00546, 1.0]], [2, [16.574, 1.0]], [2, [3.718, 1.0]], [2, [1.11, 1.0]], [2, [0.402, 1.0]], [2, [0.145, 1.0]], [2, [0.0466, 1.0]], [2, [0.015, 1.0]], [3, [3.692, 1.0]], [3, [0.882, 1.0]], [3, [0.311, 1.0]], [3, [0.113, 1.0]], [3, [0.0411, 1.0]], [4, [0.673, 1.0]], [4, [0.273, 1.0]], [4, [0.111, 1.0]]]}
ecp = {}
bas 0, expnt(s) = [28.788]
bas 1, expnt(s) = [10.414]
bas 2, expnt(s) = [2.387e+04 3.575e+03 8.128e+02 2.297e+02 7.469e+01 2.681e+01 1.032e+01
 4.178e+00 1.727e+00 4.704e-01 1.896e-01 7.394e-02]
bas 3, expnt(s) = [3.768]
bas 4, expnt(s) = [0.4704]
bas 5, expnt(s) = [0.1896]
bas 6, expnt(s) = [0.07394]
bas 7, expnt(s) = [0.02721]
bas 8, expnt(s) = [0.01]
bas 9, expnt(s) = [36.971]
bas 10, expnt(s) = [11.925]
bas 11, expnt(s) = [3.847]
bas 12, expnt(s) = [0.5071]
bas 13, expnt(s) = [22.26     5.058    1.487    0.5071   0.1812   0.06463]
bas 14, expnt(s) = [0.1812]
bas 15, expnt(s) = [0.06463]
bas 16, expnt(s) = [0.01878]
bas 17, expnt(s) = [0.00546]
bas 18, expnt(s) = [16.574]
bas 19, expnt(s) = [3.718]
bas 20, expnt(s) = [1.11]
bas 21, expnt(s) = [0.402]
bas 22, expnt(s) = [0.145]
bas 23, expnt(s) = [0.0466]
bas 24, expnt(s) = [0.015]
bas 25, expnt(s) = [3.692]
bas 26, expnt(s) = [0.882]
bas 27, expnt(s) = [0.311]
bas 28, expnt(s) = [0.113]
bas 29, expnt(s) = [0.0411]
bas 30, expnt(s) = [0.673]
bas 31, expnt(s) = [0.273]
bas 32, expnt(s) = [0.111]
CPU time:         1.31
arg.atm = [[ 5 20  1 23  0  0]]
arg.bas = [[  0   0   1   1   0  24  25   0]
 [  0   0   1   1   0  26  27   0]
 [  0   0  12   2   0  28  40   0]
 [  0   0   1   1   0  64  65   0]
 [  0   0   1   1   0  66  67   0]
 [  0   0   1   1   0  68  69   0]
 [  0   0   1   1   0  70  71   0]
 [  0   0   1   1   0  72  73   0]
 [  0   0   1   1   0  74  75   0]
 [  0   1   1   1   0  76  77   0]
 [  0   1   1   1   0  78  79   0]
 [  0   1   1   1   0  80  81   0]
 [  0   1   1   1   0  82  83   0]
 [  0   1   6   1   0  84  90   0]
 [  0   1   1   1   0  96  97   0]
 [  0   1   1   1   0  98  99   0]
 [  0   1   1   1   0 100 101   0]
 [  0   1   1   1   0 102 103   0]
 [  0   2   1   1   0 104 105   0]
 [  0   2   1   1   0 106 107   0]
 [  0   2   1   1   0 108 109   0]
 [  0   2   1   1   0 110 111   0]
 [  0   2   1   1   0 112 113   0]
 [  0   2   1   1   0 114 115   0]
 [  0   2   1   1   0 116 117   0]
 [  0   3   1   1   0 118 119   0]
 [  0   3   1   1   0 120 121   0]
 [  0   3   1   1   0 122 123   0]
 [  0   3   1   1   0 124 125   0]
 [  0   3   1   1   0 126 127   0]
 [  0   4   1   1   0 128 129   0]
 [  0   4   1   1   0 130 131   0]
 [  0   4   1   1   0 132 133   0]]
arg.env = [ 0.00000000e+00  0.00000000e+00  0.00000000e+00  0.00000000e+00
  0.00000000e+00  0.00000000e+00  0.00000000e+00  0.00000000e+00
  0.00000000e+00  0.00000000e+00  0.00000000e+00  0.00000000e+00
  0.00000000e+00  0.00000000e+00  0.00000000e+00  0.00000000e+00
  0.00000000e+00  0.00000000e+00  0.00000000e+00  0.00000000e+00
  0.00000000e+00  0.00000000e+00  0.00000000e+00  0.00000000e+00
  2.87880000e+01  3.13995660e+01  1.04140000e+01  1.46463094e+01
  2.38700000e+04  3.57500000e+03  8.12800000e+02  2.29700000e+02
  7.46900000e+01  2.68100000e+01  1.03200000e+01  4.17800000e+00
  1.72700000e+00  4.70400000e-01  1.89600000e-01  7.39400000e-02
  4.26959795e-01  8.02469928e-01  1.38453923e+00  2.22842429e+00
  3.30157056e+00  4.26569556e+00  4.37771484e+00  2.97929045e+00
  8.57674579e-01  2.21097363e-02 -2.87104654e-03  4.02662227e-04
 -8.73327028e-02 -1.62362944e-01 -2.78830874e-01 -4.56596759e-01
 -6.79185868e-01 -9.33647597e-01 -1.03301493e+00 -9.75335628e-01
 -4.68428805e-01  3.75722087e-01  4.25874650e-01  1.04066712e-01
  3.76800000e+00  6.83279191e+00  4.70400000e-01  1.43504496e+00
  1.89600000e-01  7.25928378e-01  7.39400000e-02  3.58240439e-01
  2.72100000e-02  1.69262765e-01  1.00000000e-02  7.98941580e-02
  3.69710000e+01  2.65956672e+02  1.19250000e+01  6.46483399e+01
  3.84700000e+00  1.57176323e+01  5.07100000e-01  1.24839323e+00
  2.22600000e+01  5.05800000e+00  1.48700000e+00  5.07100000e-01
  1.81200000e-01  6.46300000e-02  7.18679052e-01  7.34808959e-01
  6.33838854e-01  4.14239303e-01  1.62810366e-01  2.45251345e-02
  1.81200000e-01  3.44891217e-01  6.46300000e-02  9.50664086e-02
  1.87800000e-02  2.02816777e-02  5.46000000e-03  4.32987338e-03
  1.65740000e+01  3.55244384e+02  3.71800000e+00  2.59759124e+01
  1.11000000e+00  3.13216476e+00  4.02000000e-01  5.29571956e-01
  1.45000000e-01  8.89044276e-02  4.66000000e-02  1.21956440e-02
  1.50000000e-02  1.67760260e-03  3.69200000e+00  3.72691227e+01
  8.82000000e-01  1.48701270e+00  3.11000000e-01  1.42469282e-01
  1.13000000e-01  1.46028243e-02  4.11000000e-02  1.50021831e-03
  6.73000000e-01  4.42548150e-01  2.73000000e-01  3.70140308e-02
  1.11000000e-01  3.11571191e-03]
ecpbas  = []


******** <class 'pyscf.scf.hf_symm.SymAdaptedRHF'> ********
method = SymAdaptedRHF
initial guess = atom
damping factor = 0
level_shift factor = 0
DIIS = <class 'pyscf.scf.diis.CDIIS'>
diis_start_cycle = 1
diis_space = 8
diis_damp = 0
SCF conv_tol = 1e-13
SCF conv_tol_grad = None
SCF ddm_tol = 1e-12
SCF max_cycles = 9999
direct_scf = False
chkfile to save SCF result = out.chk
max_memory 16000 MB (current use 123 MB)
Freeze 4 electrons in irreps ['Ag']
    0 free electrons in irreps B1g B2g B3g Au B1u B2u B3u
cond(S) = 91764.10755826811

WARN: Singularity detected in overlap matrix (condition number = 9.18e+04). SCF may be inaccurate and hard to converge.

Set gradient conv threshold to 3.16228e-07
Initial guess from superposition of atomic densities.
Spherically averaged atomic HF for {'B'}


******** <class '__main__.CustomAtomSphAverageRHF'> ********
method = CustomAtomSphAverageRHF
initial guess = minao
damping factor = 0
level_shift factor = 0
DIIS = <class 'pyscf.scf.diis.CDIIS'>
diis_start_cycle = 1
diis_space = 8
diis_damp = 0
SCF conv_tol = 1e-09
SCF conv_tol_grad = None
SCF ddm_tol = 1e-10
SCF max_cycles = 9999
direct_scf = False
chkfile to save SCF result = /tmp/tmpmh6rsdz2
max_memory 16000 MB (current use 125 MB)
atom = B
Set gradient conv threshold to 3.16228e-05
Initial guess from minao.
Nelec from initial guess = 4.99998023704312
E1 = -32.574299488069926  E_coul = 8.230281209420108
init E= -24.3440182786498
l = 0  e_0 = -7.61975299
l = 0  e_1 = -0.471853143
l = 0  e_2 = 0.0169544057
l = 0  e_3 = 0.096875545
l = 0  e_4 = 0.387987479
l = 0  e_5 = 1.39593776
l = 0  e_6 = 5.30596478
l = 0  e_7 = 18.7593258
l = 0  e_8 = 63.7810389
l = 0  e_9 = 266.679485
l = 1  e_0 = 0.00858799144
l = 1  e_1 = 0.0202295087
l = 1  e_2 = 0.0840259021
l = 1  e_3 = 0.328307729
l = 1  e_4 = 1.07306594
l = 1  e_5 = 3.28880224
l = 1  e_6 = 10.040074
l = 1  e_7 = 32.7335464
l = 1  e_8 = 112.029991
l = 2  e_0 = 0.0492022296
l = 2  e_1 = 0.181038563
l = 2  e_2 = 0.537120672
l = 2  e_3 = 1.45429615
l = 2  e_4 = 4.00074914
l = 2  e_5 = 12.8189076
l = 2  e_6 = 55.6655357
l = 3  e_0 = 0.17375041
l = 3  e_1 = 0.554553911
l = 3  e_2 = 1.52244574
l = 3  e_3 = 4.16491112
l = 3  e_4 = 15.604403
l = 4  e_0 = 0.571491782
l = 4  e_1 = 1.61569333
l = 4  e_2 = 4.11351122
    CPU time for initialize scf      1.22 sec, wall time      0.35 sec
l = 0  e_0 = -7.61975299
l = 0  e_1 = -0.471853143
l = 0  e_2 = 0.0169544057
l = 0  e_3 = 0.096875545
l = 0  e_4 = 0.387987479
l = 0  e_5 = 1.39593776
l = 0  e_6 = 5.30596478
l = 0  e_7 = 18.7593258
l = 0  e_8 = 63.7810389
l = 0  e_9 = 266.679485
l = 1  e_0 = 0.00858799144
l = 1  e_1 = 0.0202295087
l = 1  e_2 = 0.0840259021
l = 1  e_3 = 0.328307729
l = 1  e_4 = 1.07306594
l = 1  e_5 = 3.28880224
l = 1  e_6 = 10.040074
l = 1  e_7 = 32.7335464
l = 1  e_8 = 112.029991
l = 2  e_0 = 0.0492022296
l = 2  e_1 = 0.181038563
l = 2  e_2 = 0.537120672
l = 2  e_3 = 1.45429615
l = 2  e_4 = 4.00074914
l = 2  e_5 = 12.8189076
l = 2  e_6 = 55.6655357
l = 3  e_0 = 0.17375041
l = 3  e_1 = 0.554553911
l = 3  e_2 = 1.52244574
l = 3  e_3 = 4.16491112
l = 3  e_4 = 15.604403
l = 4  e_0 = 0.571491782
l = 4  e_1 = 1.61569333
l = 4  e_2 = 4.11351122
l = 0  occ = 2 + 0
l = 1  occ = 0 + 0.3333
l = 2  occ = 0 + 0
l = 3  occ = 0 + 0
E1 = -30.929347770348507  E_coul = 6.6072511995313254
cycle= 1 E= -24.3220965708172  delta_E= 0.0219  |g|=    0  |ddm|= 0.529
    CPU time for cycle= 1      0.16 sec, wall time      0.04 sec
diis-norm(errvec)=0.20891
diis-c [-0.04364319  1.        ]
l = 0  e_0 = -8.09660738
l = 0  e_1 = -0.733777613
l = 0  e_2 = -0.018912219
l = 0  e_3 = 0.0420381528
l = 0  e_4 = 0.262186911
l = 0  e_5 = 1.14728112
l = 0  e_6 = 4.92520842
l = 0  e_7 = 18.3078014
l = 0  e_8 = 63.297826
l = 0  e_9 = 266.181376
l = 1  e_0 = -0.166979974
l = 1  e_1 = -0.00356376521
l = 1  e_2 = 0.0334529065
l = 1  e_3 = 0.196322258
l = 1  e_4 = 0.827796694
l = 1  e_5 = 2.93588294
l = 1  e_6 = 9.61115576
l = 1  e_7 = 32.2616167
l = 1  e_8 = 111.537996
l = 2  e_0 = 0.028124464
l = 2  e_1 = 0.114733094
l = 2  e_2 = 0.388881384
l = 2  e_3 = 1.20649149
l = 2  e_4 = 3.64808897
l = 2  e_5 = 12.3799673
l = 2  e_6 = 55.1824845
l = 3  e_0 = 0.133053915
l = 3  e_1 = 0.450055306
l = 3  e_2 = 1.31723879
l = 3  e_3 = 3.83794309
l = 3  e_4 = 15.1636665
l = 4  e_0 = 0.488790319
l = 4  e_1 = 1.44697266
l = 4  e_2 = 3.82866844
l = 0  occ = 2 + 0
l = 1  occ = 0 + 0.3333
l = 2  occ = 0 + 0
l = 3  occ = 0 + 0
E1 = -32.449401826123676  E_coul = 8.083285943589901
cycle= 2 E= -24.3661158825338  delta_E= -0.044  |g|=    0  |ddm|= 0.325
    CPU time for cycle= 2      0.16 sec, wall time      0.04 sec
diis-norm(errvec)=0.156901
diis-c [-0.00137876  0.42578849  0.57421151]
l = 0  e_0 = -7.8462044
l = 0  e_1 = -0.596222085
l = 0  e_2 = 0.00399300324
l = 0  e_3 = 0.0708961375
l = 0  e_4 = 0.327988297
l = 0  e_5 = 1.27707469
l = 0  e_6 = 5.12438996
l = 0  e_7 = 18.5446346
l = 0  e_8 = 63.5529299
l = 0  e_9 = 266.44649
l = 1  e_0 = -0.0635338739
l = 1  e_1 = 0.00838676327
l = 1  e_2 = 0.0579674572
l = 1  e_3 = 0.265559232
l = 1  e_4 = 0.957033642
l = 1  e_5 = 3.12147559
l = 1  e_6 = 9.83605066
l = 1  e_7 = 32.5095683
l = 1  e_8 = 111.798488
l = 2  e_0 = 0.0407566068
l = 2  e_1 = 0.151960632
l = 2  e_2 = 0.468928634
l = 2  e_3 = 1.33802506
l = 2  e_4 = 3.83353289
l = 2  e_5 = 12.6099693
l = 2  e_6 = 55.4366996
l = 3  e_0 = 0.156345482
l = 3  e_1 = 0.50779714
l = 3  e_2 = 1.4272925
l = 3  e_3 = 4.01033413
l = 3  e_4 = 15.394393
l = 4  e_0 = 0.535158578
l = 4  e_1 = 1.53849151
l = 4  e_2 = 3.97959591
l = 0  occ = 2 + 0
l = 1  occ = 0 + 0.3333
l = 2  occ = 0 + 0
l = 3  occ = 0 + 0
E1 = -32.1204438035135  E_coul = 7.737093791318107
cycle= 3 E= -24.3833500121954  delta_E= -0.0172  |g|=    0  |ddm|= 0.148
    CPU time for cycle= 3      0.16 sec, wall time      0.04 sec
diis-norm(errvec)=0.0342382
diis-c [-1.44500282e-04  1.00615090e-01 -6.75032502e-02  9.66888160e-01]
l = 0  e_0 = -7.81087666
l = 0  e_1 = -0.56239259
l = 0  e_2 = 0.0121290683
l = 0  e_3 = 0.0834603054
l = 0  e_4 = 0.351235714
l = 0  e_5 = 1.31041937
l = 0  e_6 = 5.16096605
l = 0  e_7 = 18.5804864
l = 0  e_8 = 63.5875368
l = 0  e_9 = 266.479849
l = 1  e_0 = -0.0414539092
l = 1  e_1 = 0.0126987014
l = 1  e_2 = 0.0694085227
l = 1  e_3 = 0.289503105
l = 1  e_4 = 0.989769571
l = 1  e_5 = 3.15767028
l = 1  e_6 = 9.87237905
l = 1  e_7 = 32.544874
l = 1  e_8 = 111.832593
l = 2  e_0 = 0.0465666664
l = 2  e_1 = 0.167497545
l = 2  e_2 = 0.495921204
l = 2  e_3 = 1.37249337
l = 2  e_4 = 3.87049365
l = 2  e_5 = 12.6463604
l = 2  e_6 = 55.4716155
l = 3  e_0 = 0.16776224
l = 3  e_1 = 0.531196945
l = 3  e_2 = 1.46059015
l = 3  e_3 = 4.04765006
l = 3  e_4 = 15.4310159
l = 4  e_0 = 0.556012121
l = 4  e_1 = 1.57007851
l = 4  e_2 = 4.0166663
l = 0  occ = 2 + 0
l = 1  occ = 0 + 0.3333
l = 2  occ = 0 + 0
l = 3  occ = 0 + 0
E1 = -32.02056876530666  E_coul = 7.636042873072983
cycle= 4 E= -24.3845258922337  delta_E= -0.00118  |g|=    0  |ddm|= 0.0479
    CPU time for cycle= 4      0.16 sec, wall time      0.04 sec
diis-norm(errvec)=0.00545207
diis-c [-3.59581054e-06  6.27471925e-04  4.15364885e-02 -3.57446122e-01
  1.31528216e+00]
l = 0  e_0 = -7.80674484
l = 0  e_1 = -0.55742015
l = 0  e_2 = 0.0138983433
l = 0  e_3 = 0.0860951831
l = 0  e_4 = 0.355483598
l = 0  e_5 = 1.31508344
l = 0  e_6 = 5.16523163
l = 0  e_7 = 18.5846454
l = 0  e_8 = 63.5918754
l = 0  e_9 = 266.484486
l = 1  e_0 = -0.0385018738
l = 1  e_1 = 0.0137906127
l = 1  e_2 = 0.0719316309
l = 1  e_3 = 0.293653138
l = 1  e_4 = 0.994380864
l = 1  e_5 = 3.16209028
l = 1  e_6 = 9.87655697
l = 1  e_7 = 32.549079
l = 1  e_8 = 111.837036
l = 2  e_0 = 0.0480400332
l = 2  e_1 = 0.170759862
l = 2  e_2 = 0.500571452
l = 2  e_3 = 1.37726621
l = 2  e_4 = 3.87483656
l = 2  e_5 = 12.6504575
l = 2  e_6 = 55.475862
l = 3  e_0 = 0.170550878
l = 3  e_1 = 0.535744585
l = 3  e_2 = 1.46556436
l = 3  e_3 = 4.0521118
l = 3  e_4 = 15.4350547
l = 4  e_0 = 0.560449587
l = 4  e_1 = 1.57522476
l = 4  e_2 = 4.0213658
l = 0  occ = 2 + 0
l = 1  occ = 0 + 0.3333
l = 2  occ = 0 + 0
l = 3  occ = 0 + 0
E1 = -32.00268567696684  E_coul = 7.618125779739791
cycle= 5 E= -24.384559897227  delta_E= -3.4e-05  |g|=    0  |ddm|= 0.00657
    CPU time for cycle= 5      0.17 sec, wall time      0.04 sec
diis-norm(errvec)=0.000417692
diis-c [-1.70975753e-08 -1.96687188e-04 -2.27820062e-03  3.31101542e-02
 -2.12887719e-01  1.18225245e+00]
l = 0  e_0 = -7.80690527
l = 0  e_1 = -0.55740408
l = 0  e_2 = 0.013925017
l = 0  e_3 = 0.0861316293
l = 0  e_4 = 0.355528798
l = 0  e_5 = 1.31508982
l = 0  e_6 = 5.1651711
l = 0  e_7 = 18.584514
l = 0  e_8 = 63.5916746
l = 0  e_9 = 266.484216
l = 1  e_0 = -0.0385430444
l = 1  e_1 = 0.0138015667
l = 1  e_2 = 0.0719663782
l = 1  e_3 = 0.293709545
l = 1  e_4 = 0.994398282
l = 1  e_5 = 3.16205138
l = 1  e_6 = 9.87645334
l = 1  e_7 = 32.5489142
l = 1  e_8 = 111.836807
l = 2  e_0 = 0.0480593303
l = 2  e_1 = 0.170794561
l = 2  e_2 = 0.500611258
l = 2  e_3 = 1.37728876
l = 2  e_4 = 3.87480704
l = 2  e_5 = 12.6503546
l = 2  e_6 = 55.4756766
l = 3  e_0 = 0.170584549
l = 3  e_1 = 0.535794306
l = 3  e_2 = 1.4656041
l = 3  e_3 = 4.05210171
l = 3  e_4 = 15.4349582
l = 4  e_0 = 0.560500769
l = 4  e_1 = 1.57527635
l = 4  e_2 = 4.02137935
l = 0  occ = 2 + 0
l = 1  occ = 0 + 0.3333
l = 2  occ = 0 + 0
l = 3  occ = 0 + 0
E1 = -32.00273782355263  E_coul = 7.618177838047267
cycle= 6 E= -24.3845599855054  delta_E= -8.83e-08  |g|=    0  |ddm|= 0.000988
    CPU time for cycle= 6      0.16 sec, wall time      0.04 sec
diis-norm(errvec)=0.00012555
diis-c [-1.60008442e-10  1.85433004e-04 -9.73420676e-05 -4.54696955e-03
  1.83561294e-02 -1.02993896e-01  1.08909665e+00]
l = 0  e_0 = -7.80682111
l = 0  e_1 = -0.557339851
l = 0  e_2 = 0.0139292257
l = 0  e_3 = 0.0861424162
l = 0  e_4 = 0.355556639
l = 0  e_5 = 1.31514761
l = 0  e_6 = 5.16524765
l = 0  e_7 = 18.5845963
l = 0  e_8 = 63.5917584
l = 0  e_9 = 266.4843
l = 1  e_0 = -0.0385047502
l = 1  e_1 = 0.0137995521
l = 1  e_2 = 0.0719739535
l = 1  e_3 = 0.293738397
l = 1  e_4 = 0.994452577
l = 1  e_5 = 3.16212322
l = 1  e_6 = 9.87653413
l = 1  e_7 = 32.5489981
l = 1  e_8 = 111.836891
l = 2  e_0 = 0.0480591298
l = 2  e_1 = 0.17080612
l = 2  e_2 = 0.500645367
l = 2  e_3 = 1.37734664
l = 2  e_4 = 3.87488012
l = 2  e_5 = 12.6504361
l = 2  e_6 = 55.475761
l = 3  e_0 = 0.17058711
l = 3  e_1 = 0.535817686
l = 3  e_2 = 1.46565545
l = 3  e_3 = 4.05217284
l = 3  e_4 = 15.4350401
l = 4  e_0 = 0.560516735
l = 4  e_1 = 1.57532044
l = 4  e_2 = 4.02144584
l = 0  occ = 2 + 0
l = 1  occ = 0 + 0.3333
l = 2  occ = 0 + 0
l = 3  occ = 0 + 0
E1 = -32.00258193575764  E_coul = 7.618021944293167
cycle= 7 E= -24.3845599914645  delta_E= -5.96e-09  |g|=    0  |ddm|= 0.000188
    CPU time for cycle= 7      0.17 sec, wall time      0.04 sec
diis-norm(errvec)=4.25823e-05
diis-c [-3.90325655e-12  2.07410620e-05 -5.51602457e-05  5.08869849e-04
 -4.49782344e-03  3.36880886e-02 -3.61520239e-01  1.33185552e+00]
l = 0  e_0 = -7.80677841
l = 0  e_1 = -0.557308099
l = 0  e_2 = 0.0139336561
l = 0  e_3 = 0.0861509532
l = 0  e_4 = 0.355573857
l = 0  e_5 = 1.31517689
l = 0  e_6 = 5.16528603
l = 0  e_7 = 18.5846381
l = 0  e_8 = 63.5918003
l = 0  e_9 = 266.484341
l = 1  e_0 = -0.0384855461
l = 1  e_1 = 0.0138016207
l = 1  e_2 = 0.0719809098
l = 1  e_3 = 0.293755675
l = 1  e_4 = 0.994480407
l = 1  e_5 = 3.16215923
l = 1  e_6 = 9.87657488
l = 1  e_7 = 32.5490405
l = 1  e_8 = 111.836933
l = 2  e_0 = 0.048062116
l = 2  e_1 = 0.170815797
l = 2  e_2 = 0.50066471
l = 2  e_3 = 1.37737554
l = 2  e_4 = 3.87491657
l = 2  e_5 = 12.6504775
l = 2  e_6 = 55.4758036
l = 3  e_0 = 0.170593296
l = 3  e_1 = 0.535832694
l = 3  e_2 = 1.46568121
l = 3  e_3 = 4.05220793
l = 3  e_4 = 15.4350818
l = 4  e_0 = 0.560529119
l = 4  e_1 = 1.5753431
l = 4  e_2 = 4.02147829
l = 0  occ = 2 + 0
l = 1  occ = 0 + 0.3333
l = 2  occ = 0 + 0
l = 3  occ = 0 + 0
E1 = -32.002477299656086  E_coul = 7.617917307211282
cycle= 8 E= -24.3845599924448  delta_E= -9.8e-10  |g|=    0  |ddm|= 7.1e-05
    CPU time for cycle= 8      0.16 sec, wall time      0.04 sec
diis-norm(errvec)=2.20399e-06
diis-c [-3.76404886e-14  1.52250198e-06  7.67193804e-07 -6.60464372e-05
  4.50529240e-04 -3.44565696e-03  3.70823796e-02 -1.46986940e-01
  1.11296345e+00]
l = 0  e_0 = -7.80677624
l = 0  e_1 = -0.557306487
l = 0  e_2 = 0.0139339447
l = 0  e_3 = 0.0861514785
l = 0  e_4 = 0.355574832
l = 0  e_5 = 1.31517837
l = 0  e_6 = 5.16528797
l = 0  e_7 = 18.5846402
l = 0  e_8 = 63.5918024
l = 0  e_9 = 266.484343
l = 1  e_0 = -0.0384846005
l = 1  e_1 = 0.0138018296
l = 1  e_2 = 0.0719813986
l = 1  e_3 = 0.293756615
l = 1  e_4 = 0.994481828
l = 1  e_5 = 3.16216105
l = 1  e_6 = 9.87657694
l = 1  e_7 = 32.5490426
l = 1  e_8 = 111.836935
l = 2  e_0 = 0.0480623579
l = 2  e_1 = 0.170816398
l = 2  e_2 = 0.500665768
l = 2  e_3 = 1.377377
l = 2  e_4 = 3.8749184
l = 2  e_5 = 12.6504796
l = 2  e_6 = 55.4758058
l = 3  e_0 = 0.170593754
l = 3  e_1 = 0.535833554
l = 3  e_2 = 1.46568252
l = 3  e_3 = 4.05220969
l = 3  e_4 = 15.4350839
l = 4  e_0 = 0.560529874
l = 4  e_1 = 1.57534427
l = 4  e_2 = 4.02147992
l = 0  occ = 2 + 0
l = 1  occ = 0 + 0.3333
l = 2  occ = 0 + 0
l = 3  occ = 0 + 0
E1 = -32.00247029642225  E_coul = 7.617910303973339
cycle= 9 E= -24.3845599924489  delta_E= -4.11e-12  |g|=    0  |ddm|= 3.14e-06
    CPU time for cycle= 9      0.17 sec, wall time      0.04 sec
diis-norm(errvec)=5.03483e-08
diis-c [-5.35672657e-17  1.21457842e+00 -3.67406499e-07  7.54194376e-06
 -5.27798109e-05  4.33275912e-04 -5.88466169e-03  2.83208651e-02
 -2.37402292e-01]
l = 0  e_0 = -7.8067762
l = 0  e_1 = -0.557306461
l = 0  e_2 = 0.0139339566
l = 0  e_3 = 0.0861514974
l = 0  e_4 = 0.355574857
l = 0  e_5 = 1.31517839
l = 0  e_6 = 5.165288
l = 0  e_7 = 18.5846402
l = 0  e_8 = 63.5918025
l = 0  e_9 = 266.484343
l = 1  e_0 = -0.038484583
l = 1  e_1 = 0.013801843
l = 1  e_2 = 0.0719814161
l = 1  e_3 = 0.293756638
l = 1  e_4 = 0.994481853
l = 1  e_5 = 3.16216108
l = 1  e_6 = 9.87657698
l = 1  e_7 = 32.5490426
l = 1  e_8 = 111.836935
l = 2  e_0 = 0.0480623714
l = 2  e_1 = 0.17081642
l = 2  e_2 = 0.500665793
l = 2  e_3 = 1.37737702
l = 2  e_4 = 3.87491843
l = 2  e_5 = 12.6504797
l = 2  e_6 = 55.4758058
l = 3  e_0 = 0.170593777
l = 3  e_1 = 0.535833579
l = 3  e_2 = 1.46568254
l = 3  e_3 = 4.05220972
l = 3  e_4 = 15.435084
l = 4  e_0 = 0.560529901
l = 4  e_1 = 1.57534429
l = 4  e_2 = 4.02147994
l = 0  occ = 2 + 0
l = 1  occ = 0 + 0.3333
l = 2  occ = 0 + 0
l = 3  occ = 0 + 0
E1 = -32.00247008659508  E_coul = 7.6179100941461355
cycle= 10 E= -24.3845599924489  delta_E= -3.2e-14  |g|=    0  |ddm|= 1.47e-07
    CPU time for cycle= 10      0.17 sec, wall time      0.04 sec
diis-norm(errvec)=9.44887e-10
Linear dependence found in DIIS error vectors.
diis-c [-4.65529343e-17  4.81204902e-01  6.00092317e-01  1.38529922e-06
 -1.06405001e-05  1.07100539e-04 -1.77468936e-03  9.16050699e-03
 -8.87808822e-02]
l = 0  e_0 = -7.8067762
l = 0  e_1 = -0.55730646
l = 0  e_2 = 0.0139339566
l = 0  e_3 = 0.0861514975
l = 0  e_4 = 0.355574857
l = 0  e_5 = 1.31517839
l = 0  e_6 = 5.165288
l = 0  e_7 = 18.5846402
l = 0  e_8 = 63.5918025
l = 0  e_9 = 266.484343
l = 1  e_0 = -0.0384845826
l = 1  e_1 = 0.013801843
l = 1  e_2 = 0.0719814163
l = 1  e_3 = 0.293756638
l = 1  e_4 = 0.994481854
l = 1  e_5 = 3.16216108
l = 1  e_6 = 9.87657698
l = 1  e_7 = 32.5490426
l = 1  e_8 = 111.836935
l = 2  e_0 = 0.0480623714
l = 2  e_1 = 0.17081642
l = 2  e_2 = 0.500665794
l = 2  e_3 = 1.37737702
l = 2  e_4 = 3.87491843
l = 2  e_5 = 12.6504797
l = 2  e_6 = 55.4758058
l = 3  e_0 = 0.170593777
l = 3  e_1 = 0.535833579
l = 3  e_2 = 1.46568254
l = 3  e_3 = 4.05220972
l = 3  e_4 = 15.435084
l = 4  e_0 = 0.560529901
l = 4  e_1 = 1.57534429
l = 4  e_2 = 4.02147994
l = 0  occ = 2 + 0
l = 1  occ = 0 + 0.3333
l = 2  occ = 0 + 0
l = 3  occ = 0 + 0
E1 = -32.00247007951306  E_coul = 7.617910087064189
cycle= 11 E= -24.3845599924489  delta_E= 7.46e-14  |g|=    0  |ddm|= 1.64e-09
    CPU time for cycle= 11      0.17 sec, wall time      0.04 sec
diis-norm(errvec)=2.02803e-09
Linear dependence found in DIIS error vectors.
diis-c [-6.84013681e-17  3.04646261e-01  3.72718727e-01  3.73154475e-01
 -1.89786072e-06  3.62622339e-05 -8.31696892e-04  5.16656100e-03
 -5.48886923e-02]
l = 0  e_0 = -7.8067762
l = 0  e_1 = -0.557306462
l = 0  e_2 = 0.0139339565
l = 0  e_3 = 0.0861514972
l = 0  e_4 = 0.355574856
l = 0  e_5 = 1.31517839
l = 0  e_6 = 5.165288
l = 0  e_7 = 18.5846402
l = 0  e_8 = 63.5918025
l = 0  e_9 = 266.484343
l = 1  e_0 = -0.0384845838
l = 1  e_1 = 0.013801843
l = 1  e_2 = 0.0719814162
l = 1  e_3 = 0.293756637
l = 1  e_4 = 0.994481853
l = 1  e_5 = 3.16216108
l = 1  e_6 = 9.87657698
l = 1  e_7 = 32.5490426
l = 1  e_8 = 111.836935
l = 2  e_0 = 0.0480623714
l = 2  e_1 = 0.17081642
l = 2  e_2 = 0.500665793
l = 2  e_3 = 1.37737702
l = 2  e_4 = 3.87491843
l = 2  e_5 = 12.6504797
l = 2  e_6 = 55.4758058
l = 3  e_0 = 0.170593777
l = 3  e_1 = 0.535833578
l = 3  e_2 = 1.46568254
l = 3  e_3 = 4.05220972
l = 3  e_4 = 15.435084
l = 4  e_0 = 0.5605299
l = 4  e_1 = 1.57534429
l = 4  e_2 = 4.02147994
l = 0  occ = 2 + 0
l = 1  occ = 0 + 0.3333
l = 2  occ = 0 + 0
l = 3  occ = 0 + 0
E1 = -32.00247008502143  E_coul = 7.617910092572511
cycle= 12 E= -24.3845599924489  delta_E= -4.62e-14  |g|=    0  |ddm|= 6.6e-09
    CPU time for cycle= 12      0.16 sec, wall time      0.04 sec
diis-norm(errvec)=9.45786e-10
Linear dependence found in DIIS error vectors.
diis-c [-4.63578820e-17  2.24023451e-01  2.69957591e-01  2.70387827e-01
  2.70429501e-01  1.20951962e-05 -4.59339409e-04  3.09181408e-03
 -3.74429391e-02]
l = 0  e_0 = -7.8067762
l = 0  e_1 = -0.557306461
l = 0  e_2 = 0.0139339566
l = 0  e_3 = 0.0861514974
l = 0  e_4 = 0.355574857
l = 0  e_5 = 1.31517839
l = 0  e_6 = 5.165288
l = 0  e_7 = 18.5846402
l = 0  e_8 = 63.5918025
l = 0  e_9 = 266.484343
l = 1  e_0 = -0.0384845831
l = 1  e_1 = 0.013801843
l = 1  e_2 = 0.0719814164
l = 1  e_3 = 0.293756638
l = 1  e_4 = 0.994481854
l = 1  e_5 = 3.16216108
l = 1  e_6 = 9.87657698
l = 1  e_7 = 32.5490426
l = 1  e_8 = 111.836935
l = 2  e_0 = 0.0480623714
l = 2  e_1 = 0.17081642
l = 2  e_2 = 0.500665794
l = 2  e_3 = 1.37737702
l = 2  e_4 = 3.87491843
l = 2  e_5 = 12.6504797
l = 2  e_6 = 55.4758058
l = 3  e_0 = 0.170593777
l = 3  e_1 = 0.535833579
l = 3  e_2 = 1.46568254
l = 3  e_3 = 4.05220972
l = 3  e_4 = 15.435084
l = 4  e_0 = 0.560529901
l = 4  e_1 = 1.57534429
l = 4  e_2 = 4.02147994
l = 0  occ = 2 + 0
l = 1  occ = 0 + 0.3333
l = 2  occ = 0 + 0
l = 3  occ = 0 + 0
E1 = -32.002470081267425  E_coul = 7.617910088818482
cycle= 13 E= -24.3845599924489  delta_E= -2.49e-14  |g|=    0  |ddm|= 2.62e-09
    CPU time for cycle= 13      0.16 sec, wall time      0.04 sec
diis-norm(errvec)=7.92132e-10
Linear dependence found in DIIS error vectors.
diis-c [ 4.79501428e-17  1.80038045e-01  2.10798438e-01  2.11062950e-01
  2.11205034e-01  2.11195740e-01 -1.51945745e-04  1.65407197e-03
 -2.58023342e-02]
l = 0  e_0 = -7.8067762
l = 0  e_1 = -0.557306462
l = 0  e_2 = 0.0139339564
l = 0  e_3 = 0.0861514971
l = 0  e_4 = 0.355574856
l = 0  e_5 = 1.31517839
l = 0  e_6 = 5.165288
l = 0  e_7 = 18.5846402
l = 0  e_8 = 63.5918025
l = 0  e_9 = 266.484343
l = 1  e_0 = -0.038484584
l = 1  e_1 = 0.013801843
l = 1  e_2 = 0.0719814161
l = 1  e_3 = 0.293756637
l = 1  e_4 = 0.994481852
l = 1  e_5 = 3.16216108
l = 1  e_6 = 9.87657698
l = 1  e_7 = 32.5490426
l = 1  e_8 = 111.836935
l = 2  e_0 = 0.0480623713
l = 2  e_1 = 0.17081642
l = 2  e_2 = 0.500665793
l = 2  e_3 = 1.37737702
l = 2  e_4 = 3.87491843
l = 2  e_5 = 12.6504797
l = 2  e_6 = 55.4758058
l = 3  e_0 = 0.170593777
l = 3  e_1 = 0.535833578
l = 3  e_2 = 1.46568254
l = 3  e_3 = 4.05220972
l = 3  e_4 = 15.435084
l = 4  e_0 = 0.5605299
l = 4  e_1 = 1.57534429
l = 4  e_2 = 4.02147994
l = 0  occ = 2 + 0
l = 1  occ = 0 + 0.3333
l = 2  occ = 0 + 0
l = 3  occ = 0 + 0
E1 = -32.00247008494322  E_coul = 7.617910092494298
cycle= 14 E= -24.3845599924489  delta_E= 2.13e-14  |g|=    0  |ddm|= 4.78e-09
    CPU time for cycle= 14      0.16 sec, wall time      0.04 sec
diis-norm(errvec)=8.54066e-10
Linear dependence found in DIIS error vectors.
diis-c [-8.10132930e-17  1.48481888e-01  1.74130079e-01  1.74364880e-01
  1.74454025e-01  1.74451047e-01  1.74451551e-01  9.96710823e-04
 -2.13301807e-02]
l = 0  e_0 = -7.8067762
l = 0  e_1 = -0.557306464
l = 0  e_2 = 0.0139339563
l = 0  e_3 = 0.0861514968
l = 0  e_4 = 0.355574855
l = 0  e_5 = 1.31517839
l = 0  e_6 = 5.16528799
l = 0  e_7 = 18.5846402
l = 0  e_8 = 63.5918025
l = 0  e_9 = 266.484343
l = 1  e_0 = -0.0384845848
l = 1  e_1 = 0.013801843
l = 1  e_2 = 0.0719814159
l = 1  e_3 = 0.293756636
l = 1  e_4 = 0.994481851
l = 1  e_5 = 3.16216108
l = 1  e_6 = 9.87657697
l = 1  e_7 = 32.5490426
l = 1  e_8 = 111.836935
l = 2  e_0 = 0.0480623712
l = 2  e_1 = 0.17081642
l = 2  e_2 = 0.500665792
l = 2  e_3 = 1.37737702
l = 2  e_4 = 3.87491843
l = 2  e_5 = 12.6504797
l = 2  e_6 = 55.4758058
l = 3  e_0 = 0.170593777
l = 3  e_1 = 0.535833578
l = 3  e_2 = 1.46568254
l = 3  e_3 = 4.05220972
l = 3  e_4 = 15.435084
l = 4  e_0 = 0.5605299
l = 4  e_1 = 1.57534429
l = 4  e_2 = 4.02147994
l = 0  occ = 2 + 0
l = 1  occ = 0 + 0.3333
l = 2  occ = 0 + 0
l = 3  occ = 0 + 0
E1 = -32.002470088536356  E_coul = 7.617910096087441
cycle= 15 E= -24.3845599924489  delta_E= 7.11e-15  |g|=    0  |ddm|= 2.68e-09
    CPU time for cycle= 15      0.16 sec, wall time      0.04 sec
diis-norm(errvec)=2.38644e-09
Linear dependence found in DIIS error vectors.
diis-c [-1.73360166e-16  1.41313754e-01  1.43466166e-01  1.43630547e-01
  1.43444005e-01  1.43552400e-01  1.43457893e-01  1.43348461e-01
 -2.21322554e-03]
l = 0  e_0 = -7.80677619
l = 0  e_1 = -0.557306459
l = 0  e_2 = 0.0139339569
l = 0  e_3 = 0.086151498
l = 0  e_4 = 0.355574858
l = 0  e_5 = 1.3151784
l = 0  e_6 = 5.165288
l = 0  e_7 = 18.5846402
l = 0  e_8 = 63.5918025
l = 0  e_9 = 266.484343
l = 1  e_0 = -0.0384845818
l = 1  e_1 = 0.0138018431
l = 1  e_2 = 0.0719814168
l = 1  e_3 = 0.293756639
l = 1  e_4 = 0.994481855
l = 1  e_5 = 3.16216108
l = 1  e_6 = 9.87657698
l = 1  e_7 = 32.5490427
l = 1  e_8 = 111.836935
l = 2  e_0 = 0.0480623715
l = 2  e_1 = 0.170816421
l = 2  e_2 = 0.500665795
l = 2  e_3 = 1.37737702
l = 2  e_4 = 3.87491843
l = 2  e_5 = 12.6504797
l = 2  e_6 = 55.4758058
l = 3  e_0 = 0.170593777
l = 3  e_1 = 0.53583358
l = 3  e_2 = 1.46568254
l = 3  e_3 = 4.05220972
l = 3  e_4 = 15.435084
l = 4  e_0 = 0.560529901
l = 4  e_1 = 1.57534429
l = 4  e_2 = 4.02147994
l = 0  occ = 2 + 0
l = 1  occ = 0 + 0.3333
l = 2  occ = 0 + 0
l = 3  occ = 0 + 0
E1 = -32.00247007575219  E_coul = 7.6179100833032845
cycle= 16 E= -24.3845599924489  delta_E= 7.11e-15  |g|=    0  |ddm|= 1.14e-08
    CPU time for cycle= 16      0.17 sec, wall time      0.04 sec
diis-norm(errvec)=3.81083e-09
Linear dependence found in DIIS error vectors.
diis-c [-4.1157153e-16  1.2500000e-01  1.2500000e-01  1.2500000e-01
  1.2500000e-01  1.2500000e-01  1.2500000e-01  1.2500000e-01
  1.2500000e-01]
l = 0  e_0 = -7.80677619
l = 0  e_1 = -0.557306457
l = 0  e_2 = 0.013933957
l = 0  e_3 = 0.0861514982
l = 0  e_4 = 0.355574859
l = 0  e_5 = 1.3151784
l = 0  e_6 = 5.165288
l = 0  e_7 = 18.5846402
l = 0  e_8 = 63.5918025
l = 0  e_9 = 266.484343
l = 1  e_0 = -0.0384845806
l = 1  e_1 = 0.0138018431
l = 1  e_2 = 0.0719814171
l = 1  e_3 = 0.29375664
l = 1  e_4 = 0.994481857
l = 1  e_5 = 3.16216108
l = 1  e_6 = 9.87657698
l = 1  e_7 = 32.5490427
l = 1  e_8 = 111.836935
l = 2  e_0 = 0.0480623716
l = 2  e_1 = 0.170816421
l = 2  e_2 = 0.500665796
l = 2  e_3 = 1.37737703
l = 2  e_4 = 3.87491844
l = 2  e_5 = 12.6504797
l = 2  e_6 = 55.4758058
l = 3  e_0 = 0.170593778
l = 3  e_1 = 0.53583358
l = 3  e_2 = 1.46568255
l = 3  e_3 = 4.05220973
l = 3  e_4 = 15.435084
l = 4  e_0 = 0.560529902
l = 4  e_1 = 1.57534429
l = 4  e_2 = 4.02147994
l = 0  occ = 2 + 0
l = 1  occ = 0 + 0.3333
l = 2  occ = 0 + 0
l = 3  occ = 0 + 0
E1 = -32.00247006961167  E_coul = 7.617910077162686
cycle= 17 E= -24.384559992449  delta_E= -7.46e-14  |g|=    0  |ddm|= 1.46e-09
    CPU time for cycle= 17      0.17 sec, wall time      0.04 sec
diis-norm(errvec)=5.42527e-09
Linear dependence found in DIIS error vectors.
diis-c [-2.89052492e-16  1.25000000e-01  1.25000000e-01  1.25000000e-01
  1.25000000e-01  1.25000000e-01  1.25000000e-01  1.25000000e-01
  1.25000000e-01]
l = 0  e_0 = -7.8067762
l = 0  e_1 = -0.557306462
l = 0  e_2 = 0.0139339565
l = 0  e_3 = 0.0861514972
l = 0  e_4 = 0.355574856
l = 0  e_5 = 1.31517839
l = 0  e_6 = 5.165288
l = 0  e_7 = 18.5846402
l = 0  e_8 = 63.5918025
l = 0  e_9 = 266.484343
l = 1  e_0 = -0.0384845837
l = 1  e_1 = 0.013801843
l = 1  e_2 = 0.0719814162
l = 1  e_3 = 0.293756637
l = 1  e_4 = 0.994481853
l = 1  e_5 = 3.16216108
l = 1  e_6 = 9.87657698
l = 1  e_7 = 32.5490426
l = 1  e_8 = 111.836935
l = 2  e_0 = 0.0480623713
l = 2  e_1 = 0.17081642
l = 2  e_2 = 0.500665793
l = 2  e_3 = 1.37737702
l = 2  e_4 = 3.87491843
l = 2  e_5 = 12.6504797
l = 2  e_6 = 55.4758058
l = 3  e_0 = 0.170593777
l = 3  e_1 = 0.535833578
l = 3  e_2 = 1.46568254
l = 3  e_3 = 4.05220972
l = 3  e_4 = 15.435084
l = 4  e_0 = 0.5605299
l = 4  e_1 = 1.57534429
l = 4  e_2 = 4.02147994
l = 0  occ = 2 + 0
l = 1  occ = 0 + 0.3333
l = 2  occ = 0 + 0
l = 3  occ = 0 + 0
E1 = -32.002470083974735  E_coul = 7.617910091525798
cycle= 18 E= -24.3845599924489  delta_E= 4.26e-14  |g|=    0  |ddm|= 9.17e-09
    CPU time for cycle= 18      0.17 sec, wall time      0.04 sec
diis-norm(errvec)=2.43442e-10
Linear dependence found in DIIS error vectors.
diis-c [-2.89052492e-16  1.25000000e-01  1.25000000e-01  1.25000000e-01
  1.25000000e-01  1.25000000e-01  1.25000000e-01  1.25000000e-01
  1.25000000e-01]
l = 0  e_0 = -7.8067762
l = 0  e_1 = -0.557306462
l = 0  e_2 = 0.0139339565
l = 0  e_3 = 0.0861514972
l = 0  e_4 = 0.355574856
l = 0  e_5 = 1.31517839
l = 0  e_6 = 5.165288
l = 0  e_7 = 18.5846402
l = 0  e_8 = 63.5918025
l = 0  e_9 = 266.484343
l = 1  e_0 = -0.0384845838
l = 1  e_1 = 0.013801843
l = 1  e_2 = 0.0719814162
l = 1  e_3 = 0.293756637
l = 1  e_4 = 0.994481853
l = 1  e_5 = 3.16216108
l = 1  e_6 = 9.87657698
l = 1  e_7 = 32.5490426
l = 1  e_8 = 111.836935
l = 2  e_0 = 0.0480623713
l = 2  e_1 = 0.17081642
l = 2  e_2 = 0.500665793
l = 2  e_3 = 1.37737702
l = 2  e_4 = 3.87491843
l = 2  e_5 = 12.6504797
l = 2  e_6 = 55.4758058
l = 3  e_0 = 0.170593777
l = 3  e_1 = 0.535833578
l = 3  e_2 = 1.46568254
l = 3  e_3 = 4.05220972
l = 3  e_4 = 15.435084
l = 4  e_0 = 0.5605299
l = 4  e_1 = 1.57534429
l = 4  e_2 = 4.02147994
l = 0  occ = 2 + 0
l = 1  occ = 0 + 0.3333
l = 2  occ = 0 + 0
l = 3  occ = 0 + 0
E1 = -32.00247008412335  E_coul = 7.617910091674419
cycle= 19 E= -24.3845599924489  delta_E= 3.55e-15  |g|=    0  |ddm|= 1.32e-10
    CPU time for cycle= 19      0.17 sec, wall time      0.04 sec
diis-norm(errvec)=2.83444e-10
Linear dependence found in DIIS error vectors.
diis-c [-2.89052492e-16  1.25000000e-01  1.25000000e-01  1.25000000e-01
  1.25000000e-01  1.25000000e-01  1.25000000e-01  1.25000000e-01
  1.25000000e-01]
l = 0  e_0 = -7.8067762
l = 0  e_1 = -0.557306462
l = 0  e_2 = 0.0139339565
l = 0  e_3 = 0.0861514972
l = 0  e_4 = 0.355574856
l = 0  e_5 = 1.31517839
l = 0  e_6 = 5.165288
l = 0  e_7 = 18.5846402
l = 0  e_8 = 63.5918025
l = 0  e_9 = 266.484343
l = 1  e_0 = -0.0384845837
l = 1  e_1 = 0.013801843
l = 1  e_2 = 0.0719814162
l = 1  e_3 = 0.293756637
l = 1  e_4 = 0.994481853
l = 1  e_5 = 3.16216108
l = 1  e_6 = 9.87657698
l = 1  e_7 = 32.5490426
l = 1  e_8 = 111.836935
l = 2  e_0 = 0.0480623713
l = 2  e_1 = 0.17081642
l = 2  e_2 = 0.500665793
l = 2  e_3 = 1.37737702
l = 2  e_4 = 3.87491843
l = 2  e_5 = 12.6504797
l = 2  e_6 = 55.4758058
l = 3  e_0 = 0.170593777
l = 3  e_1 = 0.535833578
l = 3  e_2 = 1.46568254
l = 3  e_3 = 4.05220972
l = 3  e_4 = 15.435084
l = 4  e_0 = 0.5605299
l = 4  e_1 = 1.57534429
l = 4  e_2 = 4.02147994
l = 0  occ = 2 + 0
l = 1  occ = 0 + 0.3333
l = 2  occ = 0 + 0
l = 3  occ = 0 + 0
E1 = -32.00247008380652  E_coul = 7.6179100913575875
cycle= 20 E= -24.3845599924489  delta_E=    0  |g|=    0  |ddm|= 8.08e-11
    CPU time for cycle= 20      0.16 sec, wall time      0.04 sec
l = 0  e_0 = -7.8067762
l = 0  e_1 = -0.557306462
l = 0  e_2 = 0.0139339565
l = 0  e_3 = 0.0861514972
l = 0  e_4 = 0.355574857
l = 0  e_5 = 1.31517839
l = 0  e_6 = 5.165288
l = 0  e_7 = 18.5846402
l = 0  e_8 = 63.5918025
l = 0  e_9 = 266.484343
l = 1  e_0 = -0.0384845835
l = 1  e_1 = 0.013801843
l = 1  e_2 = 0.0719814162
l = 1  e_3 = 0.293756637
l = 1  e_4 = 0.994481853
l = 1  e_5 = 3.16216108
l = 1  e_6 = 9.87657698
l = 1  e_7 = 32.5490426
l = 1  e_8 = 111.836935
l = 2  e_0 = 0.0480623713
l = 2  e_1 = 0.17081642
l = 2  e_2 = 0.500665793
l = 2  e_3 = 1.37737702
l = 2  e_4 = 3.87491843
l = 2  e_5 = 12.6504797
l = 2  e_6 = 55.4758058
l = 3  e_0 = 0.170593777
l = 3  e_1 = 0.535833578
l = 3  e_2 = 1.46568254
l = 3  e_3 = 4.05220972
l = 3  e_4 = 15.435084
l = 4  e_0 = 0.5605299
l = 4  e_1 = 1.57534429
l = 4  e_2 = 4.02147994
l = 0  occ = 2 + 0
l = 1  occ = 0 + 0.3333
l = 2  occ = 0 + 0
l = 3  occ = 0 + 0
E1 = -32.002470082551  E_coul = 7.61791009010206
Extra cycle  E= -24.3845599924489  delta_E= -3.55e-15  |g|=    0  |ddm|= 8.08e-11
    CPU time for scf_cycle      4.68 sec, wall time      1.22 sec
    CPU time for SCF      4.68 sec, wall time      1.22 sec
Atomic HF for atom  B  converged. SCF energy = -24.3845599924489

Atom B, E = -24.3845599924
Nelec from initial guess = 5.0000000000000036
E1 = -32.002470082551  E_coul = 7.61791009010206
init E= -24.3845599924489
    CPU time for initialize scf      5.90 sec, wall time      1.54 sec
HOMO (Ag) = -0.557306461791756  LUMO (B2u) = -0.0384845836468269
irrep_nelec = [4, 0, 0, 0, 0, 0, 0, 0]
Ag nocc = 2  HOMO = -0.557306461791756  LUMO = 0.01393395646499
   mo_energy = [-7.80677620e+00 -5.57306462e-01  1.39339565e-02  4.80623713e-02
  4.80623713e-02  8.61514972e-02  1.70816420e-01  1.70816420e-01
  3.55574856e-01  5.00665793e-01  5.00665793e-01  5.60529900e-01
  5.60529900e-01  5.60529900e-01  1.31517839e+00  1.37737702e+00
  1.37737702e+00  1.57534429e+00  1.57534429e+00  1.57534429e+00
  3.87491843e+00  3.87491843e+00  4.02147994e+00  4.02147994e+00
  4.02147994e+00  5.16528800e+00  1.26504797e+01  1.26504797e+01
  1.85846402e+01  5.54758058e+01  5.54758058e+01  6.35918025e+01
  2.66484343e+02]
B1g nocc = 0
   mo_energy = [4.80623713e-02 1.70816420e-01 5.00665793e-01 5.60529900e-01
 5.60529900e-01 1.37737702e+00 1.57534429e+00 1.57534429e+00
 3.87491843e+00 4.02147994e+00 4.02147994e+00 1.26504797e+01
 5.54758058e+01]
B2g nocc = 0
   mo_energy = [4.80623713e-02 1.70816420e-01 5.00665793e-01 5.60529900e-01
 5.60529900e-01 1.37737702e+00 1.57534429e+00 1.57534429e+00
 3.87491843e+00 4.02147994e+00 4.02147994e+00 1.26504797e+01
 5.54758058e+01]
B3g nocc = 0
   mo_energy = [4.80623713e-02 1.70816420e-01 5.00665793e-01 5.60529900e-01
 5.60529900e-01 1.37737702e+00 1.57534429e+00 1.57534429e+00
 3.87491843e+00 4.02147994e+00 4.02147994e+00 1.26504797e+01
 5.54758058e+01]
Au nocc = 0
   mo_energy = [ 0.17059378  0.53583358  1.46568254  4.05220972 15.43508396]
B1u nocc = 0
   mo_energy = [-3.84845836e-02  1.38018430e-02  7.19814162e-02  1.70593777e-01
  1.70593777e-01  2.93756637e-01  5.35833578e-01  5.35833578e-01
  9.94481853e-01  1.46568254e+00  1.46568254e+00  3.16216108e+00
  4.05220972e+00  4.05220972e+00  9.87657698e+00  1.54350840e+01
  1.54350840e+01  3.25490426e+01  1.11836935e+02]
B2u nocc = 0
   mo_energy = [-3.84845836e-02  1.38018430e-02  7.19814162e-02  1.70593777e-01
  1.70593777e-01  2.93756637e-01  5.35833578e-01  5.35833578e-01
  9.94481853e-01  1.46568254e+00  1.46568254e+00  3.16216108e+00
  4.05220972e+00  4.05220972e+00  9.87657698e+00  1.54350840e+01
  1.54350840e+01  3.25490426e+01  1.11836935e+02]
B3u nocc = 0
   mo_energy = [-3.84845836e-02  1.38018430e-02  7.19814162e-02  1.70593777e-01
  1.70593777e-01  2.93756637e-01  5.35833578e-01  5.35833578e-01
  9.94481853e-01  1.46568254e+00  1.46568254e+00  3.16216108e+00
  4.05220972e+00  4.05220972e+00  9.87657698e+00  1.54350840e+01
  1.54350840e+01  3.25490426e+01  1.11836935e+02]
E1 = -30.181559126741202  E_coul = 5.952658826115235
cycle= 1 E= -24.228900300626  delta_E= 0.156  |g|= 0.118  |ddm|= 0.163
    CPU time for cycle= 1      0.18 sec, wall time      0.05 sec
diis-norm(errvec)=0.166427
diis-c [-0.02769799  1.        ]
HOMO (Ag) = -0.887735447435531  LUMO (B3u) = -0.298388256439367
irrep_nelec = [4, 0, 0, 0, 0, 0, 0, 0]
Ag nocc = 2  HOMO = -0.887735447435531  LUMO = -0.115478116297999
   mo_energy = [-8.25379233e+00 -8.87735447e-01 -1.15478116e-01 -5.55166499e-02
 -5.55166499e-02 -4.39945310e-02  1.12247905e-02  1.12247905e-02
  1.43414832e-01  2.59902140e-01  2.59902140e-01  3.70226732e-01
  3.70226732e-01  3.70226732e-01  1.00174280e+00  1.05973239e+00
  1.05973239e+00  1.30717055e+00  1.30717055e+00  1.30717055e+00
  3.49215820e+00  3.49215820e+00  3.67507592e+00  3.67507592e+00
  3.67507592e+00  4.76801888e+00  1.22213575e+01  1.22213575e+01
  1.81501387e+01  5.50265941e+01  5.50265941e+01  6.31437177e+01
  2.66032906e+02]
B1g nocc = 0
   mo_energy = [-5.55166499e-02  1.12247905e-02  2.59902140e-01  3.70226732e-01
  3.70226732e-01  1.05973239e+00  1.30717055e+00  1.30717055e+00
  3.49215820e+00  3.67507592e+00  3.67507592e+00  1.22213575e+01
  5.50265941e+01]
B2g nocc = 0
   mo_energy = [-5.55166499e-02  1.12247905e-02  2.59902140e-01  3.70226732e-01
  3.70226732e-01  1.05973239e+00  1.30717055e+00  1.30717055e+00
  3.49215820e+00  3.67507592e+00  3.67507592e+00  1.22213575e+01
  5.50265941e+01]
B3g nocc = 0
   mo_energy = [-5.55166499e-02  1.12247905e-02  2.59902140e-01  3.70226732e-01
  3.70226732e-01  1.05973239e+00  1.30717055e+00  1.30717055e+00
  3.49215820e+00  3.67507592e+00  3.67507592e+00  1.22213575e+01
  5.50265941e+01]
Au nocc = 0
   mo_energy = [ 0.03441891  0.32713633  1.17351963  3.68233705 15.00434085]
B1u nocc = 0
   mo_energy = [-2.98388256e-01 -7.98892650e-02 -3.94368004e-02  3.44189089e-02
  3.44189089e-02  8.04713001e-02  3.27136328e-01  3.27136328e-01
  6.85715765e-01  1.17351963e+00  1.17351963e+00  2.78166989e+00
  3.68233705e+00  3.68233705e+00  9.45322154e+00  1.50043408e+01
  1.50043408e+01  3.21048846e+01  1.11385809e+02]
B2u nocc = 0
   mo_energy = [-2.98388256e-01 -7.98892650e-02 -3.94368004e-02  3.44189089e-02
  3.44189089e-02  8.04713001e-02  3.27136328e-01  3.27136328e-01
  6.85715765e-01  1.17351963e+00  1.17351963e+00  2.78166989e+00
  3.68233705e+00  3.68233705e+00  9.45322154e+00  1.50043408e+01
  1.50043408e+01  3.21048846e+01  1.11385809e+02]
B3u nocc = 0
   mo_energy = [-2.98388256e-01 -7.98892650e-02 -3.94368004e-02  3.44189089e-02
  3.44189089e-02  8.04713001e-02  3.27136328e-01  3.27136328e-01
  6.85715765e-01  1.17351963e+00  1.17351963e+00  2.78166989e+00
  3.68233705e+00  3.68233705e+00  9.45322154e+00  1.50043408e+01
  1.50043408e+01  3.21048846e+01  1.11385809e+02]
E1 = -30.32463414263677  E_coul = 6.087543635751044
cycle= 2 E= -24.2370905068857  delta_E= -0.00819  |g|= 0.0236  |ddm|= 0.348
    CPU time for cycle= 2      0.18 sec, wall time      0.05 sec
diis-norm(errvec)=0.0333999
diis-c [-2.35503955e-04 -2.18045176e-01  1.21804518e+00]
HOMO (Ag) = -0.87437362801918  LUMO (B2u) = -0.276330106464075
irrep_nelec = [4, 0, 0, 0, 0, 0, 0, 0]
Ag nocc = 2  HOMO = -0.87437362801918  LUMO = -0.114397965126095
   mo_energy = [-8.18606676e+00 -8.74373628e-01 -1.14397965e-01 -5.51883234e-02
 -5.51883234e-02 -4.33468362e-02  1.26503230e-02  1.26503230e-02
  1.46968459e-01  2.66934120e-01  2.66934120e-01  3.70879499e-01
  3.70879499e-01  3.70879499e-01  1.01808612e+00  1.07830044e+00
  1.07830044e+00  1.31325258e+00  1.31325258e+00  1.31325258e+00
  3.52935391e+00  3.52935391e+00  3.69789622e+00  3.69789622e+00
  3.69789622e+00  4.80985755e+00  1.22775854e+01  1.22775854e+01
  1.82104790e+01  5.50973664e+01  5.50973664e+01  6.32170726e+01
  2.66117929e+02]
B1g nocc = 0
   mo_energy = [-5.51883234e-02  1.26503230e-02  2.66934120e-01  3.70879499e-01
  3.70879499e-01  1.07830044e+00  1.31325258e+00  1.31325258e+00
  3.52935391e+00  3.69789622e+00  3.69789622e+00  1.22775854e+01
  5.50973664e+01]
B2g nocc = 0
   mo_energy = [-5.51883234e-02  1.26503230e-02  2.66934120e-01  3.70879499e-01
  3.70879499e-01  1.07830044e+00  1.31325258e+00  1.31325258e+00
  3.52935391e+00  3.69789622e+00  3.69789622e+00  1.22775854e+01
  5.50973664e+01]
B3g nocc = 0
   mo_energy = [-5.51883234e-02  1.26503230e-02  2.66934120e-01  3.70879499e-01
  3.70879499e-01  1.07830044e+00  1.31325258e+00  1.31325258e+00
  3.52935391e+00  3.69789622e+00  3.69789622e+00  1.22775854e+01
  5.50973664e+01]
Au nocc = 0
   mo_energy = [ 0.03455782  0.32923604  1.18482751  3.71366618 15.06027838]
B1u nocc = 0
   mo_energy = [-2.76330106e-01 -7.84721744e-02 -3.87508156e-02  3.45578157e-02
  3.45578157e-02  8.65025210e-02  3.29236040e-01  3.29236040e-01
  7.05750659e-01  1.18482751e+00  1.18482751e+00  2.82019581e+00
  3.71366618e+00  3.71366618e+00  9.50751938e+00  1.50602784e+01
  1.50602784e+01  3.21717029e+01  1.11464058e+02]
B2u nocc = 0
   mo_energy = [-2.76330106e-01 -7.84721744e-02 -3.87508156e-02  3.45578157e-02
  3.45578157e-02  8.65025210e-02  3.29236040e-01  3.29236040e-01
  7.05750659e-01  1.18482751e+00  1.18482751e+00  2.82019581e+00
  3.71366618e+00  3.71366618e+00  9.50751938e+00  1.50602784e+01
  1.50602784e+01  3.21717029e+01  1.11464058e+02]
B3u nocc = 0
   mo_energy = [-2.76330106e-01 -7.84721744e-02 -3.87508156e-02  3.45578157e-02
  3.45578157e-02  8.65025210e-02  3.29236040e-01  3.29236040e-01
  7.05750659e-01  1.18482751e+00  1.18482751e+00  2.82019581e+00
  3.71366618e+00  3.71366618e+00  9.50751938e+00  1.50602784e+01
  1.50602784e+01  3.21717029e+01  1.11464058e+02]
E1 = -30.354330807629164  E_coul = 6.116855155189216
cycle= 3 E= -24.2374756524399  delta_E= -0.000385  |g|= 0.00158  |ddm|= 0.125
    CPU time for cycle= 3      0.18 sec, wall time      0.05 sec
diis-norm(errvec)=0.00223064
diis-c [-1.81643883e-06  1.51364633e-02 -1.21705450e-01  1.10656899e+00]
HOMO (Ag) = -0.873833147056913  LUMO (B1u) = -0.275901269919796
irrep_nelec = [4, 0, 0, 0, 0, 0, 0, 0]
Ag nocc = 2  HOMO = -0.873833147056913  LUMO = -0.114481432971716
   mo_energy = [-8.18592638e+00 -8.73833147e-01 -1.14481433e-01 -5.51800268e-02
 -5.51800268e-02 -4.33803546e-02  1.26890040e-02  1.26890040e-02
  1.46928137e-01  2.67100263e-01  2.67100263e-01  3.70893913e-01
  3.70893913e-01  3.70893913e-01  1.01835684e+00  1.07862885e+00
  1.07862885e+00  1.31340821e+00  1.31340821e+00  1.31340821e+00
  3.52989391e+00  3.52989391e+00  3.69835122e+00  3.69835122e+00
  3.69835122e+00  4.81036345e+00  1.22780569e+01  1.22780569e+01
  1.82107493e+01  5.50972657e+01  5.50972657e+01  6.32167384e+01
  2.66116746e+02]
B1g nocc = 0
   mo_energy = [-5.51800268e-02  1.26890040e-02  2.67100263e-01  3.70893913e-01
  3.70893913e-01  1.07862885e+00  1.31340821e+00  1.31340821e+00
  3.52989391e+00  3.69835122e+00  3.69835122e+00  1.22780569e+01
  5.50972657e+01]
B2g nocc = 0
   mo_energy = [-5.51800268e-02  1.26890040e-02  2.67100263e-01  3.70893913e-01
  3.70893913e-01  1.07862885e+00  1.31340821e+00  1.31340821e+00
  3.52989391e+00  3.69835122e+00  3.69835122e+00  1.22780569e+01
  5.50972657e+01]
B3g nocc = 0
   mo_energy = [-5.51800268e-02  1.26890040e-02  2.67100263e-01  3.70893913e-01
  3.70893913e-01  1.07862885e+00  1.31340821e+00  1.31340821e+00
  3.52989391e+00  3.69835122e+00  3.69835122e+00  1.22780569e+01
  5.50972657e+01]
Au nocc = 0
   mo_energy = [ 0.03456034  0.32929211  1.18508226  3.71420123 15.06083798]
B1u nocc = 0
   mo_energy = [-2.75901270e-01 -7.84626382e-02 -3.87456650e-02  3.45603431e-02
  3.45603431e-02  8.65647507e-02  3.29292111e-01  3.29292111e-01
  7.06021399e-01  1.18508226e+00  1.18508226e+00  2.82058530e+00
  3.71420123e+00  3.71420123e+00  9.50789541e+00  1.50608380e+01
  1.50608380e+01  3.21717483e+01  1.11463420e+02]
B2u nocc = 0
   mo_energy = [-2.75901270e-01 -7.84626382e-02 -3.87456650e-02  3.45603431e-02
  3.45603431e-02  8.65647507e-02  3.29292111e-01  3.29292111e-01
  7.06021399e-01  1.18508226e+00  1.18508226e+00  2.82058530e+00
  3.71420123e+00  3.71420123e+00  9.50789541e+00  1.50608380e+01
  1.50608380e+01  3.21717483e+01  1.11463420e+02]
B3u nocc = 0
   mo_energy = [-2.75901270e-01 -7.84626382e-02 -3.87456650e-02  3.45603431e-02
  3.45603431e-02  8.65647507e-02  3.29292111e-01  3.29292111e-01
  7.06021399e-01  1.18508226e+00  1.18508226e+00  2.82058530e+00
  3.71420123e+00  3.71420123e+00  9.50789541e+00  1.50608380e+01
  1.50608380e+01  3.21717483e+01  1.11463420e+02]
E1 = -30.355461106725315  E_coul = 6.117983855047229
cycle= 4 E= -24.2374772516781  delta_E= -1.6e-06  |g|= 0.000136  |ddm|= 0.00558
    CPU time for cycle= 4      0.18 sec, wall time      0.05 sec
diis-norm(errvec)=0.000192502
diis-c [-5.30159095e-09 -5.80407408e-04  7.52445779e-03 -1.37995655e-01
  1.13105161e+00]
HOMO (Ag) = -0.873829600772595  LUMO (B3u) = -0.275871713061872
irrep_nelec = [4, 0, 0, 0, 0, 0, 0, 0]
Ag nocc = 2  HOMO = -0.873829600772595  LUMO = -0.114474260155936
   mo_energy = [-8.18590603e+00 -8.73829601e-01 -1.14474260e-01 -5.51785789e-02
 -5.51785789e-02 -4.33765085e-02  1.26947111e-02  1.26947111e-02
  1.46944879e-01  2.67118606e-01  2.67118606e-01  3.70897818e-01
  3.70897818e-01  3.70897818e-01  1.01839547e+00  1.07865905e+00
  1.07865905e+00  1.31343146e+00  1.31343146e+00  1.31343146e+00
  3.52992890e+00  3.52992890e+00  3.69839379e+00  3.69839379e+00
  3.69839379e+00  4.81039852e+00  1.22780781e+01  1.22780781e+01
  1.82107733e+01  5.50972903e+01  5.50972903e+01  6.32167707e+01
  2.66116806e+02]
B1g nocc = 0
   mo_energy = [-5.51785789e-02  1.26947111e-02  2.67118606e-01  3.70897818e-01
  3.70897818e-01  1.07865905e+00  1.31343146e+00  1.31343146e+00
  3.52992890e+00  3.69839379e+00  3.69839379e+00  1.22780781e+01
  5.50972903e+01]
B2g nocc = 0
   mo_energy = [-5.51785789e-02  1.26947111e-02  2.67118606e-01  3.70897818e-01
  3.70897818e-01  1.07865905e+00  1.31343146e+00  1.31343146e+00
  3.52992890e+00  3.69839379e+00  3.69839379e+00  1.22780781e+01
  5.50972903e+01]
B3g nocc = 0
   mo_energy = [-5.51785789e-02  1.26947111e-02  2.67118606e-01  3.70897818e-01
  3.70897818e-01  1.07865905e+00  1.31343146e+00  1.31343146e+00
  3.52992890e+00  3.69839379e+00  3.69839379e+00  1.22780781e+01
  5.50972903e+01]
Au nocc = 0
   mo_energy = [ 0.03456117  0.32930187  1.18511205  3.71424148 15.0608586 ]
B1u nocc = 0
   mo_energy = [-2.75871713e-01 -7.84611459e-02 -3.87448306e-02  3.45611652e-02
  3.45611652e-02  8.65741700e-02  3.29301871e-01  3.29301871e-01
  7.06047690e-01  1.18511205e+00  1.18511205e+00  2.82061391e+00
  3.71424148e+00  3.71424148e+00  9.50792309e+00  1.50608586e+01
  1.50608586e+01  3.21717738e+01  1.11463460e+02]
B2u nocc = 0
   mo_energy = [-2.75871713e-01 -7.84611459e-02 -3.87448306e-02  3.45611652e-02
  3.45611652e-02  8.65741700e-02  3.29301871e-01  3.29301871e-01
  7.06047690e-01  1.18511205e+00  1.18511205e+00  2.82061391e+00
  3.71424148e+00  3.71424148e+00  9.50792309e+00  1.50608586e+01
  1.50608586e+01  3.21717738e+01  1.11463460e+02]
B3u nocc = 0
   mo_energy = [-2.75871713e-01 -7.84611459e-02 -3.87448306e-02  3.45611652e-02
  3.45611652e-02  8.65741700e-02  3.29301871e-01  3.29301871e-01
  7.06047690e-01  1.18511205e+00  1.18511205e+00  2.82061391e+00
  3.71424148e+00  3.71424148e+00  9.50792309e+00  1.50608586e+01
  1.50608586e+01  3.21717738e+01  1.11463460e+02]
E1 = -30.35548062961793  E_coul = 6.118003368727294
cycle= 5 E= -24.2374772608906  delta_E= -9.21e-09  |g|= 5.51e-06  |ddm|= 0.000823
    CPU time for cycle= 5      0.19 sec, wall time      0.05 sec
diis-norm(errvec)=7.79509e-06
diis-c [-6.75770499e-12  3.80229605e-05 -5.29837186e-04  1.02555954e-02
 -1.06915518e-01  1.09715174e+00]
HOMO (Ag) = -0.873829483653295  LUMO (B3u) = -0.275872011101267
irrep_nelec = [4, 0, 0, 0, 0, 0, 0, 0]
Ag nocc = 2  HOMO = -0.873829483653295  LUMO = -0.114474357408875
   mo_energy = [-8.18590737e+00 -8.73829484e-01 -1.14474357e-01 -5.51785501e-02
 -5.51785501e-02 -4.33765445e-02  1.26947956e-02  1.26947956e-02
  1.46944836e-01  2.67118617e-01  2.67118617e-01  3.70897897e-01
  3.70897897e-01  3.70897897e-01  1.01839527e+00  1.07865869e+00
  1.07865869e+00  1.31343166e+00  1.31343166e+00  1.31343166e+00
  3.52992780e+00  3.52992780e+00  3.69839339e+00  3.69839339e+00
  3.69839339e+00  4.81039737e+00  1.22780766e+01  1.22780766e+01
  1.82107722e+01  5.50972898e+01  5.50972898e+01  6.32167705e+01
  2.66116807e+02]
B1g nocc = 0
   mo_energy = [-5.51785501e-02  1.26947956e-02  2.67118617e-01  3.70897897e-01
  3.70897897e-01  1.07865869e+00  1.31343166e+00  1.31343166e+00
  3.52992780e+00  3.69839339e+00  3.69839339e+00  1.22780766e+01
  5.50972898e+01]
B2g nocc = 0
   mo_energy = [-5.51785501e-02  1.26947956e-02  2.67118617e-01  3.70897897e-01
  3.70897897e-01  1.07865869e+00  1.31343166e+00  1.31343166e+00
  3.52992780e+00  3.69839339e+00  3.69839339e+00  1.22780766e+01
  5.50972898e+01]
B3g nocc = 0
   mo_energy = [-5.51785501e-02  1.26947956e-02  2.67118617e-01  3.70897897e-01
  3.70897897e-01  1.07865869e+00  1.31343166e+00  1.31343166e+00
  3.52992780e+00  3.69839339e+00  3.69839339e+00  1.22780766e+01
  5.50972898e+01]
Au nocc = 0
   mo_energy = [ 0.03456118  0.32930201  1.18511205  3.71424062 15.06085683]
B1u nocc = 0
   mo_energy = [-2.75872011e-01 -7.84612014e-02 -3.87448524e-02  3.45611849e-02
  3.45611849e-02  8.65740699e-02  3.29302009e-01  3.29302009e-01
  7.06047300e-01  1.18511205e+00  1.18511205e+00  2.82061303e+00
  3.71424062e+00  3.71424062e+00  9.50792182e+00  1.50608568e+01
  1.50608568e+01  3.21717729e+01  1.11463460e+02]
B2u nocc = 0
   mo_energy = [-2.75872011e-01 -7.84612014e-02 -3.87448524e-02  3.45611849e-02
  3.45611849e-02  8.65740699e-02  3.29302009e-01  3.29302009e-01
  7.06047300e-01  1.18511205e+00  1.18511205e+00  2.82061303e+00
  3.71424062e+00  3.71424062e+00  9.50792182e+00  1.50608568e+01
  1.50608568e+01  3.21717729e+01  1.11463460e+02]
B3u nocc = 0
   mo_energy = [-2.75872011e-01 -7.84612014e-02 -3.87448524e-02  3.45611849e-02
  3.45611849e-02  8.65740699e-02  3.29302009e-01  3.29302009e-01
  7.06047300e-01  1.18511205e+00  1.18511205e+00  2.82061303e+00
  3.71424062e+00  3.71424062e+00  9.50792182e+00  1.50608568e+01
  1.50608568e+01  3.21717729e+01  1.11463460e+02]
E1 = -30.3554807880338  E_coul = 6.118003527128903
cycle= 6 E= -24.2374772609049  delta_E= -1.43e-11  |g|= 2.43e-07  |ddm|= 7.31e-05
    CPU time for cycle= 6      0.18 sec, wall time      0.05 sec
diis-norm(errvec)=3.43115e-07
diis-c [-2.38329992e-14 -4.12431100e-06  5.72480230e-05 -1.08879727e-03
  1.14504551e-02 -1.34893071e-01  1.12447829e+00]
HOMO (Ag) = -0.873829507180734  LUMO (B2u) = -0.275872003469079
irrep_nelec = [4, 0, 0, 0, 0, 0, 0, 0]
Ag nocc = 2  HOMO = -0.873829507180734  LUMO = -0.114474346916731
   mo_energy = [-8.18590737e+00 -8.73829507e-01 -1.14474347e-01 -5.51785480e-02
 -5.51785480e-02 -4.33765393e-02  1.26948008e-02  1.26948008e-02
  1.46944854e-01  2.67118621e-01  2.67118621e-01  3.70897902e-01
  3.70897902e-01  3.70897902e-01  1.01839529e+00  1.07865870e+00
  1.07865870e+00  1.31343167e+00  1.31343167e+00  1.31343167e+00
  3.52992781e+00  3.52992781e+00  3.69839341e+00  3.69839341e+00
  3.69839341e+00  4.81039737e+00  1.22780766e+01  1.22780766e+01
  1.82107722e+01  5.50972898e+01  5.50972898e+01  6.32167704e+01
  2.66116807e+02]
B1g nocc = 0
   mo_energy = [-5.51785480e-02  1.26948008e-02  2.67118621e-01  3.70897902e-01
  3.70897902e-01  1.07865870e+00  1.31343167e+00  1.31343167e+00
  3.52992781e+00  3.69839341e+00  3.69839341e+00  1.22780766e+01
  5.50972898e+01]
B2g nocc = 0
   mo_energy = [-5.51785480e-02  1.26948008e-02  2.67118621e-01  3.70897902e-01
  3.70897902e-01  1.07865870e+00  1.31343167e+00  1.31343167e+00
  3.52992781e+00  3.69839341e+00  3.69839341e+00  1.22780766e+01
  5.50972898e+01]
B3g nocc = 0
   mo_energy = [-5.51785480e-02  1.26948008e-02  2.67118621e-01  3.70897902e-01
  3.70897902e-01  1.07865870e+00  1.31343167e+00  1.31343167e+00
  3.52992781e+00  3.69839341e+00  3.69839341e+00  1.22780766e+01
  5.50972898e+01]
Au nocc = 0
   mo_energy = [ 0.03456119  0.32930202  1.18511207  3.71424064 15.06085684]
B1u nocc = 0
   mo_energy = [-2.75872003e-01 -7.84612008e-02 -3.87448518e-02  3.45611865e-02
  3.45611865e-02  8.65740773e-02  3.29302016e-01  3.29302016e-01
  7.06047308e-01  1.18511207e+00  1.18511207e+00  2.82061304e+00
  3.71424064e+00  3.71424064e+00  9.50792182e+00  1.50608568e+01
  1.50608568e+01  3.21717729e+01  1.11463460e+02]
B2u nocc = 0
   mo_energy = [-2.75872003e-01 -7.84612008e-02 -3.87448518e-02  3.45611865e-02
  3.45611865e-02  8.65740773e-02  3.29302016e-01  3.29302016e-01
  7.06047308e-01  1.18511207e+00  1.18511207e+00  2.82061304e+00
  3.71424064e+00  3.71424064e+00  9.50792182e+00  1.50608568e+01
  1.50608568e+01  3.21717729e+01  1.11463460e+02]
B3u nocc = 0
   mo_energy = [-2.75872003e-01 -7.84612008e-02 -3.87448518e-02  3.45611865e-02
  3.45611865e-02  8.65740773e-02  3.29302016e-01  3.29302016e-01
  7.06047308e-01  1.18511207e+00  1.18511207e+00  2.82061304e+00
  3.71424064e+00  3.71424064e+00  9.50792182e+00  1.50608568e+01
  1.50608568e+01  3.21717729e+01  1.11463460e+02]
E1 = -30.35548076486431  E_coul = 6.118003503959376
cycle= 7 E= -24.2374772609049  delta_E= -3.91e-14  |g|= 1.03e-08  |ddm|= 1.35e-06
    CPU time for cycle= 7      0.19 sec, wall time      0.05 sec
diis-norm(errvec)=1.46209e-08
Linear dependence found in DIIS error vectors.
diis-c [-5.37106302e-15 -1.94190063e-06  2.67944201e-05 -5.09331909e-04
  5.34971135e-03 -6.25942509e-02  4.94360210e-01  5.63368809e-01]
HOMO (Ag) = -0.873829506256222  LUMO (B3u) = -0.275872004035467
irrep_nelec = [4, 0, 0, 0, 0, 0, 0, 0]
Ag nocc = 2  HOMO = -0.873829506256222  LUMO = -0.11447434732385
   mo_energy = [-8.18590737e+00 -8.73829506e-01 -1.14474347e-01 -5.51785480e-02
 -5.51785480e-02 -4.33765395e-02  1.26948007e-02  1.26948007e-02
  1.46944853e-01  2.67118621e-01  2.67118621e-01  3.70897902e-01
  3.70897902e-01  3.70897902e-01  1.01839529e+00  1.07865870e+00
  1.07865870e+00  1.31343167e+00  1.31343167e+00  1.31343167e+00
  3.52992781e+00  3.52992781e+00  3.69839341e+00  3.69839341e+00
  3.69839341e+00  4.81039737e+00  1.22780766e+01  1.22780766e+01
  1.82107722e+01  5.50972898e+01  5.50972898e+01  6.32167704e+01
  2.66116807e+02]
B1g nocc = 0
   mo_energy = [-5.51785480e-02  1.26948007e-02  2.67118621e-01  3.70897902e-01
  3.70897902e-01  1.07865870e+00  1.31343167e+00  1.31343167e+00
  3.52992781e+00  3.69839341e+00  3.69839341e+00  1.22780766e+01
  5.50972898e+01]
B2g nocc = 0
   mo_energy = [-5.51785480e-02  1.26948007e-02  2.67118621e-01  3.70897902e-01
  3.70897902e-01  1.07865870e+00  1.31343167e+00  1.31343167e+00
  3.52992781e+00  3.69839341e+00  3.69839341e+00  1.22780766e+01
  5.50972898e+01]
B3g nocc = 0
   mo_energy = [-5.51785480e-02  1.26948007e-02  2.67118621e-01  3.70897902e-01
  3.70897902e-01  1.07865870e+00  1.31343167e+00  1.31343167e+00
  3.52992781e+00  3.69839341e+00  3.69839341e+00  1.22780766e+01
  5.50972898e+01]
Au nocc = 0
   mo_energy = [ 0.03456119  0.32930202  1.18511207  3.71424064 15.06085684]
B1u nocc = 0
   mo_energy = [-2.75872004e-01 -7.84612009e-02 -3.87448519e-02  3.45611865e-02
  3.45611865e-02  8.65740770e-02  3.29302016e-01  3.29302016e-01
  7.06047307e-01  1.18511207e+00  1.18511207e+00  2.82061304e+00
  3.71424064e+00  3.71424064e+00  9.50792182e+00  1.50608568e+01
  1.50608568e+01  3.21717729e+01  1.11463460e+02]
B2u nocc = 0
   mo_energy = [-2.75872004e-01 -7.84612009e-02 -3.87448519e-02  3.45611865e-02
  3.45611865e-02  8.65740770e-02  3.29302016e-01  3.29302016e-01
  7.06047307e-01  1.18511207e+00  1.18511207e+00  2.82061304e+00
  3.71424064e+00  3.71424064e+00  9.50792182e+00  1.50608568e+01
  1.50608568e+01  3.21717729e+01  1.11463460e+02]
B3u nocc = 0
   mo_energy = [-2.75872004e-01 -7.84612009e-02 -3.87448519e-02  3.45611865e-02
  3.45611865e-02  8.65740770e-02  3.29302016e-01  3.29302016e-01
  7.06047307e-01  1.18511207e+00  1.18511207e+00  2.82061304e+00
  3.71424064e+00  3.71424064e+00  9.50792182e+00  1.50608568e+01
  1.50608568e+01  3.21717729e+01  1.11463460e+02]
E1 = -30.355480765802785  E_coul = 6.118003504897849
cycle= 8 E= -24.2374772609049  delta_E=    0  |g|= 4.74e-09  |ddm|= 2.4e-08
    CPU time for cycle= 8      0.18 sec, wall time      0.05 sec
diis-norm(errvec)=6.70545e-09
Linear dependence found in DIIS error vectors.
diis-c [-4.29079219e-17  7.47767152e-08 -1.25897240e-06  2.45566422e-05
 -2.66064029e-04  3.49419531e-03 -5.35593935e-02  5.13772977e-01
  5.36534913e-01]
HOMO (Ag) = -0.873829505389781  LUMO (B1u) = -0.275872004557904
irrep_nelec = [4, 0, 0, 0, 0, 0, 0, 0]
Ag nocc = 2  HOMO = -0.873829505389781  LUMO = -0.114474347707032
   mo_energy = [-8.18590737e+00 -8.73829505e-01 -1.14474348e-01 -5.51785480e-02
 -5.51785480e-02 -4.33765397e-02  1.26948007e-02  1.26948007e-02
  1.46944853e-01  2.67118621e-01  2.67118621e-01  3.70897902e-01
  3.70897902e-01  3.70897902e-01  1.01839529e+00  1.07865870e+00
  1.07865870e+00  1.31343167e+00  1.31343167e+00  1.31343167e+00
  3.52992781e+00  3.52992781e+00  3.69839340e+00  3.69839340e+00
  3.69839340e+00  4.81039737e+00  1.22780766e+01  1.22780766e+01
  1.82107722e+01  5.50972898e+01  5.50972898e+01  6.32167704e+01
  2.66116807e+02]
B1g nocc = 0
   mo_energy = [-5.51785480e-02  1.26948007e-02  2.67118621e-01  3.70897902e-01
  3.70897902e-01  1.07865870e+00  1.31343167e+00  1.31343167e+00
  3.52992781e+00  3.69839340e+00  3.69839340e+00  1.22780766e+01
  5.50972898e+01]
B2g nocc = 0
   mo_energy = [-5.51785480e-02  1.26948007e-02  2.67118621e-01  3.70897902e-01
  3.70897902e-01  1.07865870e+00  1.31343167e+00  1.31343167e+00
  3.52992781e+00  3.69839340e+00  3.69839340e+00  1.22780766e+01
  5.50972898e+01]
B3g nocc = 0
   mo_energy = [-5.51785480e-02  1.26948007e-02  2.67118621e-01  3.70897902e-01
  3.70897902e-01  1.07865870e+00  1.31343167e+00  1.31343167e+00
  3.52992781e+00  3.69839340e+00  3.69839340e+00  1.22780766e+01
  5.50972898e+01]
Au nocc = 0
   mo_energy = [ 0.03456119  0.32930202  1.18511207  3.71424063 15.06085684]
B1u nocc = 0
   mo_energy = [-2.75872005e-01 -7.84612009e-02 -3.87448519e-02  3.45611865e-02
  3.45611865e-02  8.65740767e-02  3.29302016e-01  3.29302016e-01
  7.06047306e-01  1.18511207e+00  1.18511207e+00  2.82061304e+00
  3.71424063e+00  3.71424063e+00  9.50792182e+00  1.50608568e+01
  1.50608568e+01  3.21717729e+01  1.11463460e+02]
B2u nocc = 0
   mo_energy = [-2.75872005e-01 -7.84612009e-02 -3.87448519e-02  3.45611865e-02
  3.45611865e-02  8.65740767e-02  3.29302016e-01  3.29302016e-01
  7.06047306e-01  1.18511207e+00  1.18511207e+00  2.82061304e+00
  3.71424063e+00  3.71424063e+00  9.50792182e+00  1.50608568e+01
  1.50608568e+01  3.21717729e+01  1.11463460e+02]
B3u nocc = 0
   mo_energy = [-2.75872005e-01 -7.84612009e-02 -3.87448519e-02  3.45611865e-02
  3.45611865e-02  8.65740767e-02  3.29302016e-01  3.29302016e-01
  7.06047306e-01  1.18511207e+00  1.18511207e+00  2.82061304e+00
  3.71424063e+00  3.71424063e+00  9.50792182e+00  1.50608568e+01
  1.50608568e+01  3.21717729e+01  1.11463460e+02]
E1 = -30.355480766683456  E_coul = 6.118003505778499
cycle= 9 E= -24.237477260905  delta_E= -2.13e-14  |g|= 1.01e-10  |ddm|= 2.4e-08
    CPU time for cycle= 9      0.18 sec, wall time      0.05 sec
diis-norm(errvec)=1.42326e-10
Linear dependence found in DIIS error vectors.
diis-c [-7.96177051e-16  3.53410388e-01 -3.10089388e-07  8.05797104e-06
 -9.73989485e-05  1.48837867e-03 -2.98047656e-02  3.31585306e-01
  3.43410344e-01]
HOMO (Ag) = -0.873829505408013  LUMO (B1u) = -0.275872004509549
irrep_nelec = [4, 0, 0, 0, 0, 0, 0, 0]
Ag nocc = 2  HOMO = -0.873829505408013  LUMO = -0.114474347688675
   mo_energy = [-8.18590737e+00 -8.73829505e-01 -1.14474348e-01 -5.51785480e-02
 -5.51785480e-02 -4.33765397e-02  1.26948007e-02  1.26948007e-02
  1.46944853e-01  2.67118621e-01  2.67118621e-01  3.70897902e-01
  3.70897902e-01  3.70897902e-01  1.01839529e+00  1.07865870e+00
  1.07865870e+00  1.31343167e+00  1.31343167e+00  1.31343167e+00
  3.52992781e+00  3.52992781e+00  3.69839340e+00  3.69839340e+00
  3.69839340e+00  4.81039737e+00  1.22780766e+01  1.22780766e+01
  1.82107722e+01  5.50972898e+01  5.50972898e+01  6.32167704e+01
  2.66116807e+02]
B1g nocc = 0
   mo_energy = [-5.51785480e-02  1.26948007e-02  2.67118621e-01  3.70897902e-01
  3.70897902e-01  1.07865870e+00  1.31343167e+00  1.31343167e+00
  3.52992781e+00  3.69839340e+00  3.69839340e+00  1.22780766e+01
  5.50972898e+01]
B2g nocc = 0
   mo_energy = [-5.51785480e-02  1.26948007e-02  2.67118621e-01  3.70897902e-01
  3.70897902e-01  1.07865870e+00  1.31343167e+00  1.31343167e+00
  3.52992781e+00  3.69839340e+00  3.69839340e+00  1.22780766e+01
  5.50972898e+01]
B3g nocc = 0
   mo_energy = [-5.51785480e-02  1.26948007e-02  2.67118621e-01  3.70897902e-01
  3.70897902e-01  1.07865870e+00  1.31343167e+00  1.31343167e+00
  3.52992781e+00  3.69839340e+00  3.69839340e+00  1.22780766e+01
  5.50972898e+01]
Au nocc = 0
   mo_energy = [ 0.03456119  0.32930202  1.18511207  3.71424063 15.06085684]
B1u nocc = 0
   mo_energy = [-2.75872005e-01 -7.84612009e-02 -3.87448519e-02  3.45611865e-02
  3.45611865e-02  8.65740768e-02  3.29302016e-01  3.29302016e-01
  7.06047306e-01  1.18511207e+00  1.18511207e+00  2.82061304e+00
  3.71424063e+00  3.71424063e+00  9.50792182e+00  1.50608568e+01
  1.50608568e+01  3.21717729e+01  1.11463460e+02]
B2u nocc = 0
   mo_energy = [-2.75872005e-01 -7.84612009e-02 -3.87448519e-02  3.45611865e-02
  3.45611865e-02  8.65740768e-02  3.29302016e-01  3.29302016e-01
  7.06047306e-01  1.18511207e+00  1.18511207e+00  2.82061304e+00
  3.71424063e+00  3.71424063e+00  9.50792182e+00  1.50608568e+01
  1.50608568e+01  3.21717729e+01  1.11463460e+02]
B3u nocc = 0
   mo_energy = [-2.75872005e-01 -7.84612009e-02 -3.87448519e-02  3.45611865e-02
  3.45611865e-02  8.65740768e-02  3.29302016e-01  3.29302016e-01
  7.06047306e-01  1.18511207e+00  1.18511207e+00  2.82061304e+00
  3.71424063e+00  3.71424063e+00  9.50792182e+00  1.50608568e+01
  1.50608568e+01  3.21717729e+01  1.11463460e+02]
E1 = -30.355480766679676  E_coul = 6.118003505774721
cycle= 10 E= -24.237477260905  delta_E=    0  |g|= 8.07e-11  |ddm|= 2.6e-10
    CPU time for cycle= 10      0.18 sec, wall time      0.05 sec
diis-norm(errvec)=1.14002e-10
Linear dependence found in DIIS error vectors.
diis-c [-9.82132722e-18  2.58633959e-01  2.58636477e-01 -5.55376807e-07
  1.45301682e-06  2.57807796e-04 -1.65195305e-02  2.46061866e-01
  2.52928522e-01]
HOMO (Ag) = -0.87382950545131  LUMO (B3u) = -0.275872004599735
irrep_nelec = [4, 0, 0, 0, 0, 0, 0, 0]
Ag nocc = 2  HOMO = -0.87382950545131  LUMO = -0.114474347699232
   mo_energy = [-8.18590737e+00 -8.73829505e-01 -1.14474348e-01 -5.51785480e-02
 -5.51785480e-02 -4.33765397e-02  1.26948007e-02  1.26948007e-02
  1.46944853e-01  2.67118621e-01  2.67118621e-01  3.70897902e-01
  3.70897902e-01  3.70897902e-01  1.01839529e+00  1.07865870e+00
  1.07865870e+00  1.31343167e+00  1.31343167e+00  1.31343167e+00
  3.52992781e+00  3.52992781e+00  3.69839340e+00  3.69839340e+00
  3.69839340e+00  4.81039737e+00  1.22780766e+01  1.22780766e+01
  1.82107722e+01  5.50972898e+01  5.50972898e+01  6.32167704e+01
  2.66116807e+02]
B1g nocc = 0
   mo_energy = [-5.51785480e-02  1.26948007e-02  2.67118621e-01  3.70897902e-01
  3.70897902e-01  1.07865870e+00  1.31343167e+00  1.31343167e+00
  3.52992781e+00  3.69839340e+00  3.69839340e+00  1.22780766e+01
  5.50972898e+01]
B2g nocc = 0
   mo_energy = [-5.51785480e-02  1.26948007e-02  2.67118621e-01  3.70897902e-01
  3.70897902e-01  1.07865870e+00  1.31343167e+00  1.31343167e+00
  3.52992781e+00  3.69839340e+00  3.69839340e+00  1.22780766e+01
  5.50972898e+01]
B3g nocc = 0
   mo_energy = [-5.51785480e-02  1.26948007e-02  2.67118621e-01  3.70897902e-01
  3.70897902e-01  1.07865870e+00  1.31343167e+00  1.31343167e+00
  3.52992781e+00  3.69839340e+00  3.69839340e+00  1.22780766e+01
  5.50972898e+01]
Au nocc = 0
   mo_energy = [ 0.03456119  0.32930202  1.18511207  3.71424063 15.06085684]
B1u nocc = 0
   mo_energy = [-2.75872005e-01 -7.84612009e-02 -3.87448519e-02  3.45611865e-02
  3.45611865e-02  8.65740767e-02  3.29302016e-01  3.29302016e-01
  7.06047306e-01  1.18511207e+00  1.18511207e+00  2.82061304e+00
  3.71424063e+00  3.71424063e+00  9.50792182e+00  1.50608568e+01
  1.50608568e+01  3.21717729e+01  1.11463460e+02]
B2u nocc = 0
   mo_energy = [-2.75872005e-01 -7.84612009e-02 -3.87448519e-02  3.45611865e-02
  3.45611865e-02  8.65740767e-02  3.29302016e-01  3.29302016e-01
  7.06047306e-01  1.18511207e+00  1.18511207e+00  2.82061304e+00
  3.71424063e+00  3.71424063e+00  9.50792182e+00  1.50608568e+01
  1.50608568e+01  3.21717729e+01  1.11463460e+02]
B3u nocc = 0
   mo_energy = [-2.75872005e-01 -7.84612009e-02 -3.87448519e-02  3.45611865e-02
  3.45611865e-02  8.65740767e-02  3.29302016e-01  3.29302016e-01
  7.06047306e-01  1.18511207e+00  1.18511207e+00  2.82061304e+00
  3.71424063e+00  3.71424063e+00  9.50792182e+00  1.50608568e+01
  1.50608568e+01  3.21717729e+01  1.11463460e+02]
E1 = -30.355480766590915  E_coul = 6.118003505685977
cycle= 11 E= -24.2374772609049  delta_E= 1.78e-14  |g|= 9.69e-11  |ddm|= 1.34e-10
    CPU time for cycle= 11      0.18 sec, wall time      0.05 sec
diis-norm(errvec)=1.37066e-10
Linear dependence found in DIIS error vectors.
diis-c [ 1.32785069e-16  2.05885374e-01  2.05887007e-01  2.05892825e-01
 -5.96056196e-06  3.24603987e-04 -1.47728248e-02  1.95583102e-01
  2.01205874e-01]
HOMO (Ag) = -0.87382950548443  LUMO (B3u) = -0.2758720046482
irrep_nelec = [4, 0, 0, 0, 0, 0, 0, 0]
Ag nocc = 2  HOMO = -0.87382950548443  LUMO = -0.114474347700129
   mo_energy = [-8.18590737e+00 -8.73829505e-01 -1.14474348e-01 -5.51785480e-02
 -5.51785480e-02 -4.33765397e-02  1.26948007e-02  1.26948007e-02
  1.46944853e-01  2.67118621e-01  2.67118621e-01  3.70897902e-01
  3.70897902e-01  3.70897902e-01  1.01839529e+00  1.07865870e+00
  1.07865870e+00  1.31343167e+00  1.31343167e+00  1.31343167e+00
  3.52992781e+00  3.52992781e+00  3.69839340e+00  3.69839340e+00
  3.69839340e+00  4.81039737e+00  1.22780766e+01  1.22780766e+01
  1.82107722e+01  5.50972898e+01  5.50972898e+01  6.32167704e+01
  2.66116807e+02]
B1g nocc = 0
   mo_energy = [-5.51785480e-02  1.26948007e-02  2.67118621e-01  3.70897902e-01
  3.70897902e-01  1.07865870e+00  1.31343167e+00  1.31343167e+00
  3.52992781e+00  3.69839340e+00  3.69839340e+00  1.22780766e+01
  5.50972898e+01]
B2g nocc = 0
   mo_energy = [-5.51785480e-02  1.26948007e-02  2.67118621e-01  3.70897902e-01
  3.70897902e-01  1.07865870e+00  1.31343167e+00  1.31343167e+00
  3.52992781e+00  3.69839340e+00  3.69839340e+00  1.22780766e+01
  5.50972898e+01]
B3g nocc = 0
   mo_energy = [-5.51785480e-02  1.26948007e-02  2.67118621e-01  3.70897902e-01
  3.70897902e-01  1.07865870e+00  1.31343167e+00  1.31343167e+00
  3.52992781e+00  3.69839340e+00  3.69839340e+00  1.22780766e+01
  5.50972898e+01]
Au nocc = 0
   mo_energy = [ 0.03456119  0.32930202  1.18511206  3.71424063 15.06085684]
B1u nocc = 0
   mo_energy = [-2.75872005e-01 -7.84612009e-02 -3.87448519e-02  3.45611865e-02
  3.45611865e-02  8.65740767e-02  3.29302016e-01  3.29302016e-01
  7.06047306e-01  1.18511206e+00  1.18511206e+00  2.82061304e+00
  3.71424063e+00  3.71424063e+00  9.50792182e+00  1.50608568e+01
  1.50608568e+01  3.21717729e+01  1.11463460e+02]
B2u nocc = 0
   mo_energy = [-2.75872005e-01 -7.84612009e-02 -3.87448519e-02  3.45611865e-02
  3.45611865e-02  8.65740767e-02  3.29302016e-01  3.29302016e-01
  7.06047306e-01  1.18511206e+00  1.18511206e+00  2.82061304e+00
  3.71424063e+00  3.71424063e+00  9.50792182e+00  1.50608568e+01
  1.50608568e+01  3.21717729e+01  1.11463460e+02]
B3u nocc = 0
   mo_energy = [-2.75872005e-01 -7.84612009e-02 -3.87448519e-02  3.45611865e-02
  3.45611865e-02  8.65740767e-02  3.29302016e-01  3.29302016e-01
  7.06047306e-01  1.18511206e+00  1.18511206e+00  2.82061304e+00
  3.71424063e+00  3.71424063e+00  9.50792182e+00  1.50608568e+01
  1.50608568e+01  3.21717729e+01  1.11463460e+02]
E1 = -30.355480766518344  E_coul = 6.118003505613396
cycle= 12 E= -24.2374772609049  delta_E= -7.11e-15  |g|= 1.21e-10  |ddm|= 3.59e-10
    CPU time for cycle= 12      0.19 sec, wall time      0.05 sec
diis-norm(errvec)=1.70867e-10
Linear dependence found in DIIS error vectors.
diis-c [ 4.39317976e-17  1.70472762e-01  1.70478174e-01  1.70478707e-01
  1.70512036e-01  1.55537651e-04 -1.12313817e-02  1.62345789e-01
  1.66788375e-01]
HOMO (Ag) = -0.873829505488106  LUMO (B1u) = -0.275872004654357
irrep_nelec = [4, 0, 0, 0, 0, 0, 0, 0]
Ag nocc = 2  HOMO = -0.873829505488106  LUMO = -0.114474347700599
   mo_energy = [-8.18590737e+00 -8.73829505e-01 -1.14474348e-01 -5.51785480e-02
 -5.51785480e-02 -4.33765397e-02  1.26948007e-02  1.26948007e-02
  1.46944853e-01  2.67118621e-01  2.67118621e-01  3.70897902e-01
  3.70897902e-01  3.70897902e-01  1.01839529e+00  1.07865870e+00
  1.07865870e+00  1.31343167e+00  1.31343167e+00  1.31343167e+00
  3.52992781e+00  3.52992781e+00  3.69839340e+00  3.69839340e+00
  3.69839340e+00  4.81039737e+00  1.22780766e+01  1.22780766e+01
  1.82107722e+01  5.50972898e+01  5.50972898e+01  6.32167704e+01
  2.66116807e+02]
B1g nocc = 0
   mo_energy = [-5.51785480e-02  1.26948007e-02  2.67118621e-01  3.70897902e-01
  3.70897902e-01  1.07865870e+00  1.31343167e+00  1.31343167e+00
  3.52992781e+00  3.69839340e+00  3.69839340e+00  1.22780766e+01
  5.50972898e+01]
B2g nocc = 0
   mo_energy = [-5.51785480e-02  1.26948007e-02  2.67118621e-01  3.70897902e-01
  3.70897902e-01  1.07865870e+00  1.31343167e+00  1.31343167e+00
  3.52992781e+00  3.69839340e+00  3.69839340e+00  1.22780766e+01
  5.50972898e+01]
B3g nocc = 0
   mo_energy = [-5.51785480e-02  1.26948007e-02  2.67118621e-01  3.70897902e-01
  3.70897902e-01  1.07865870e+00  1.31343167e+00  1.31343167e+00
  3.52992781e+00  3.69839340e+00  3.69839340e+00  1.22780766e+01
  5.50972898e+01]
Au nocc = 0
   mo_energy = [ 0.03456119  0.32930202  1.18511206  3.71424063 15.06085684]
B1u nocc = 0
   mo_energy = [-2.75872005e-01 -7.84612009e-02 -3.87448519e-02  3.45611865e-02
  3.45611865e-02  8.65740767e-02  3.29302016e-01  3.29302016e-01
  7.06047306e-01  1.18511206e+00  1.18511206e+00  2.82061304e+00
  3.71424063e+00  3.71424063e+00  9.50792182e+00  1.50608568e+01
  1.50608568e+01  3.21717729e+01  1.11463460e+02]
B2u nocc = 0
   mo_energy = [-2.75872005e-01 -7.84612009e-02 -3.87448519e-02  3.45611865e-02
  3.45611865e-02  8.65740767e-02  3.29302016e-01  3.29302016e-01
  7.06047306e-01  1.18511206e+00  1.18511206e+00  2.82061304e+00
  3.71424063e+00  3.71424063e+00  9.50792182e+00  1.50608568e+01
  1.50608568e+01  3.21717729e+01  1.11463460e+02]
B3u nocc = 0
   mo_energy = [-2.75872005e-01 -7.84612009e-02 -3.87448519e-02  3.45611865e-02
  3.45611865e-02  8.65740767e-02  3.29302016e-01  3.29302016e-01
  7.06047306e-01  1.18511206e+00  1.18511206e+00  2.82061304e+00
  3.71424063e+00  3.71424063e+00  9.50792182e+00  1.50608568e+01
  1.50608568e+01  3.21717729e+01  1.11463460e+02]
E1 = -30.355480766508215  E_coul = 6.118003505603289
cycle= 13 E= -24.2374772609049  delta_E= 2.13e-14  |g|= 1.37e-10  |ddm|= 2.2e-10
    CPU time for cycle= 13      0.19 sec, wall time      0.05 sec
diis-norm(errvec)=1.94466e-10
Linear dependence found in DIIS error vectors.
diis-c [ 1.14628926e-16  1.45020322e-01  1.45024764e-01  1.45024213e-01
  1.45045660e-01  1.45040294e-01 -6.89091987e-03  1.39289671e-01
  1.42445996e-01]
HOMO (Ag) = -0.873829505468423  LUMO (B1u) = -0.275872004624539
irrep_nelec = [4, 0, 0, 0, 0, 0, 0, 0]
Ag nocc = 2  HOMO = -0.873829505468423  LUMO = -0.114474347699726
   mo_energy = [-8.18590737e+00 -8.73829505e-01 -1.14474348e-01 -5.51785480e-02
 -5.51785480e-02 -4.33765397e-02  1.26948007e-02  1.26948007e-02
  1.46944853e-01  2.67118621e-01  2.67118621e-01  3.70897902e-01
  3.70897902e-01  3.70897902e-01  1.01839529e+00  1.07865870e+00
  1.07865870e+00  1.31343167e+00  1.31343167e+00  1.31343167e+00
  3.52992781e+00  3.52992781e+00  3.69839340e+00  3.69839340e+00
  3.69839340e+00  4.81039737e+00  1.22780766e+01  1.22780766e+01
  1.82107722e+01  5.50972898e+01  5.50972898e+01  6.32167704e+01
  2.66116807e+02]
B1g nocc = 0
   mo_energy = [-5.51785480e-02  1.26948007e-02  2.67118621e-01  3.70897902e-01
[...]
  3.52992781e+00  3.52992781e+00  3.69839340e+00  3.69839340e+00
  3.69839340e+00  4.81039737e+00  1.22780766e+01  1.22780766e+01
  1.82107722e+01  5.50972898e+01  5.50972898e+01  6.32167704e+01
  2.66116807e+02]
B1g nocc = 0
   mo_energy = [-5.51785480e-02  1.26948007e-02  2.67118621e-01  3.70897902e-01
  3.70897902e-01  1.07865870e+00  1.31343167e+00  1.31343167e+00
  3.52992781e+00  3.69839340e+00  3.69839340e+00  1.22780766e+01
  5.50972898e+01]
B2g nocc = 0
   mo_energy = [-5.51785480e-02  1.26948007e-02  2.67118621e-01  3.70897902e-01
  3.70897902e-01  1.07865870e+00  1.31343167e+00  1.31343167e+00
  3.52992781e+00  3.69839340e+00  3.69839340e+00  1.22780766e+01
  5.50972898e+01]
B3g nocc = 0
   mo_energy = [-5.51785480e-02  1.26948007e-02  2.67118621e-01  3.70897902e-01
  3.70897902e-01  1.07865870e+00  1.31343167e+00  1.31343167e+00
  3.52992781e+00  3.69839340e+00  3.69839340e+00  1.22780766e+01
  5.50972898e+01]
Au nocc = 0
   mo_energy = [ 0.03456119  0.32930202  1.18511207  3.71424063 15.06085684]
B1u nocc = 0
   mo_energy = [-2.75872005e-01 -7.84612009e-02 -3.87448519e-02  3.45611865e-02
  3.45611865e-02  8.65740767e-02  3.29302016e-01  3.29302016e-01
  7.06047306e-01  1.18511207e+00  1.18511207e+00  2.82061304e+00
  3.71424063e+00  3.71424063e+00  9.50792182e+00  1.50608568e+01
  1.50608568e+01  3.21717729e+01  1.11463460e+02]
B2u nocc = 0
   mo_energy = [-2.75872005e-01 -7.84612009e-02 -3.87448519e-02  3.45611865e-02
  3.45611865e-02  8.65740767e-02  3.29302016e-01  3.29302016e-01
  7.06047306e-01  1.18511207e+00  1.18511207e+00  2.82061304e+00
  3.71424063e+00  3.71424063e+00  9.50792182e+00  1.50608568e+01
  1.50608568e+01  3.21717729e+01  1.11463460e+02]
B3u nocc = 0
   mo_energy = [-2.75872005e-01 -7.84612009e-02 -3.87448519e-02  3.45611865e-02
  3.45611865e-02  8.65740767e-02  3.29302016e-01  3.29302016e-01
  7.06047306e-01  1.18511207e+00  1.18511207e+00  2.82061304e+00
  3.71424063e+00  3.71424063e+00  9.50792182e+00  1.50608568e+01
  1.50608568e+01  3.21717729e+01  1.11463460e+02]
E1 = -30.35548076664774  E_coul = 6.118003505742788
cycle= 21 E= -24.237477260905  delta_E= 1.07e-14  |g|= 1.56e-11  |ddm|= 2.36e-11
    CPU time for cycle= 21      0.19 sec, wall time      0.05 sec
diis-norm(errvec)=2.20561e-11
Linear dependence found in DIIS error vectors.
diis-c [-2.89052492e-16  1.25000000e-01  1.25000000e-01  1.25000000e-01
  1.25000000e-01  1.25000000e-01  1.25000000e-01  1.25000000e-01
  1.25000000e-01]
HOMO (Ag) = -0.873829505422143  LUMO (B1u) = -0.275872004558102
irrep_nelec = [4, 0, 0, 0, 0, 0, 0, 0]
Ag nocc = 2  HOMO = -0.873829505422143  LUMO = -0.114474347698308
   mo_energy = [-8.18590737e+00 -8.73829505e-01 -1.14474348e-01 -5.51785480e-02
 -5.51785480e-02 -4.33765397e-02  1.26948007e-02  1.26948007e-02
  1.46944853e-01  2.67118621e-01  2.67118621e-01  3.70897902e-01
  3.70897902e-01  3.70897902e-01  1.01839529e+00  1.07865870e+00
  1.07865870e+00  1.31343167e+00  1.31343167e+00  1.31343167e+00
  3.52992781e+00  3.52992781e+00  3.69839340e+00  3.69839340e+00
  3.69839340e+00  4.81039737e+00  1.22780766e+01  1.22780766e+01
  1.82107722e+01  5.50972898e+01  5.50972898e+01  6.32167704e+01
  2.66116807e+02]
B1g nocc = 0
   mo_energy = [-5.51785480e-02  1.26948007e-02  2.67118621e-01  3.70897902e-01
  3.70897902e-01  1.07865870e+00  1.31343167e+00  1.31343167e+00
  3.52992781e+00  3.69839340e+00  3.69839340e+00  1.22780766e+01
  5.50972898e+01]
B2g nocc = 0
   mo_energy = [-5.51785480e-02  1.26948007e-02  2.67118621e-01  3.70897902e-01
  3.70897902e-01  1.07865870e+00  1.31343167e+00  1.31343167e+00
  3.52992781e+00  3.69839340e+00  3.69839340e+00  1.22780766e+01
  5.50972898e+01]
B3g nocc = 0
   mo_energy = [-5.51785480e-02  1.26948007e-02  2.67118621e-01  3.70897902e-01
  3.70897902e-01  1.07865870e+00  1.31343167e+00  1.31343167e+00
  3.52992781e+00  3.69839340e+00  3.69839340e+00  1.22780766e+01
  5.50972898e+01]
Au nocc = 0
   mo_energy = [ 0.03456119  0.32930202  1.18511207  3.71424063 15.06085684]
B1u nocc = 0
   mo_energy = [-2.75872005e-01 -7.84612009e-02 -3.87448519e-02  3.45611865e-02
  3.45611865e-02  8.65740767e-02  3.29302016e-01  3.29302016e-01
  7.06047306e-01  1.18511207e+00  1.18511207e+00  2.82061304e+00
  3.71424063e+00  3.71424063e+00  9.50792182e+00  1.50608568e+01
  1.50608568e+01  3.21717729e+01  1.11463460e+02]
B2u nocc = 0
   mo_energy = [-2.75872005e-01 -7.84612009e-02 -3.87448519e-02  3.45611865e-02
  3.45611865e-02  8.65740767e-02  3.29302016e-01  3.29302016e-01
  7.06047306e-01  1.18511207e+00  1.18511207e+00  2.82061304e+00
  3.71424063e+00  3.71424063e+00  9.50792182e+00  1.50608568e+01
  1.50608568e+01  3.21717729e+01  1.11463460e+02]
B3u nocc = 0
   mo_energy = [-2.75872005e-01 -7.84612009e-02 -3.87448519e-02  3.45611865e-02
  3.45611865e-02  8.65740767e-02  3.29302016e-01  3.29302016e-01
  7.06047306e-01  1.18511207e+00  1.18511207e+00  2.82061304e+00
  3.71424063e+00  3.71424063e+00  9.50792182e+00  1.50608568e+01
  1.50608568e+01  3.21717729e+01  1.11463460e+02]
E1 = -30.35548076665166  E_coul = 6.118003505746693
cycle= 22 E= -24.237477260905  delta_E= -1.42e-14  |g|= 1.31e-11  |ddm|= 2.26e-11
    CPU time for cycle= 22      0.19 sec, wall time      0.05 sec
diis-norm(errvec)=1.85485e-11
Linear dependence found in DIIS error vectors.
diis-c [-2.89052492e-16  1.25000000e-01  1.25000000e-01  1.25000000e-01
  1.25000000e-01  1.25000000e-01  1.25000000e-01  1.25000000e-01
  1.25000000e-01]
HOMO (Ag) = -0.87382950542103  LUMO (B1u) = -0.275872004556475
irrep_nelec = [4, 0, 0, 0, 0, 0, 0, 0]
Ag nocc = 2  HOMO = -0.87382950542103  LUMO = -0.114474347698283
   mo_energy = [-8.18590737e+00 -8.73829505e-01 -1.14474348e-01 -5.51785480e-02
 -5.51785480e-02 -4.33765397e-02  1.26948007e-02  1.26948007e-02
  1.46944853e-01  2.67118621e-01  2.67118621e-01  3.70897902e-01
  3.70897902e-01  3.70897902e-01  1.01839529e+00  1.07865870e+00
  1.07865870e+00  1.31343167e+00  1.31343167e+00  1.31343167e+00
  3.52992781e+00  3.52992781e+00  3.69839340e+00  3.69839340e+00
  3.69839340e+00  4.81039737e+00  1.22780766e+01  1.22780766e+01
  1.82107722e+01  5.50972898e+01  5.50972898e+01  6.32167704e+01
  2.66116807e+02]
B1g nocc = 0
   mo_energy = [-5.51785480e-02  1.26948007e-02  2.67118621e-01  3.70897902e-01
  3.70897902e-01  1.07865870e+00  1.31343167e+00  1.31343167e+00
  3.52992781e+00  3.69839340e+00  3.69839340e+00  1.22780766e+01
  5.50972898e+01]
B2g nocc = 0
   mo_energy = [-5.51785480e-02  1.26948007e-02  2.67118621e-01  3.70897902e-01
  3.70897902e-01  1.07865870e+00  1.31343167e+00  1.31343167e+00
  3.52992781e+00  3.69839340e+00  3.69839340e+00  1.22780766e+01
  5.50972898e+01]
B3g nocc = 0
   mo_energy = [-5.51785480e-02  1.26948007e-02  2.67118621e-01  3.70897902e-01
  3.70897902e-01  1.07865870e+00  1.31343167e+00  1.31343167e+00
  3.52992781e+00  3.69839340e+00  3.69839340e+00  1.22780766e+01
  5.50972898e+01]
Au nocc = 0
   mo_energy = [ 0.03456119  0.32930202  1.18511207  3.71424063 15.06085684]
B1u nocc = 0
   mo_energy = [-2.75872005e-01 -7.84612009e-02 -3.87448519e-02  3.45611865e-02
  3.45611865e-02  8.65740767e-02  3.29302016e-01  3.29302016e-01
  7.06047306e-01  1.18511207e+00  1.18511207e+00  2.82061304e+00
  3.71424063e+00  3.71424063e+00  9.50792182e+00  1.50608568e+01
  1.50608568e+01  3.21717729e+01  1.11463460e+02]
B2u nocc = 0
   mo_energy = [-2.75872005e-01 -7.84612009e-02 -3.87448519e-02  3.45611865e-02
  3.45611865e-02  8.65740767e-02  3.29302016e-01  3.29302016e-01
  7.06047306e-01  1.18511207e+00  1.18511207e+00  2.82061304e+00
  3.71424063e+00  3.71424063e+00  9.50792182e+00  1.50608568e+01
  1.50608568e+01  3.21717729e+01  1.11463460e+02]
B3u nocc = 0
   mo_energy = [-2.75872005e-01 -7.84612009e-02 -3.87448519e-02  3.45611865e-02
  3.45611865e-02  8.65740767e-02  3.29302016e-01  3.29302016e-01
  7.06047306e-01  1.18511207e+00  1.18511207e+00  2.82061304e+00
  3.71424063e+00  3.71424063e+00  9.50792182e+00  1.50608568e+01
  1.50608568e+01  3.21717729e+01  1.11463460e+02]
E1 = -30.355480766654114  E_coul = 6.11800350574916
cycle= 23 E= -24.237477260905  delta_E= 1.42e-14  |g|= 1.15e-11  |ddm|= 2.51e-11
    CPU time for cycle= 23      0.18 sec, wall time      0.05 sec
diis-norm(errvec)=1.62918e-11
Linear dependence found in DIIS error vectors.
diis-c [-2.89052492e-16  1.25000000e-01  1.25000000e-01  1.25000000e-01
  1.25000000e-01  1.25000000e-01  1.25000000e-01  1.25000000e-01
  1.25000000e-01]
HOMO (Ag) = -0.873829505419946  LUMO (B1u) = -0.275872004554792
irrep_nelec = [4, 0, 0, 0, 0, 0, 0, 0]
Ag nocc = 2  HOMO = -0.873829505419946  LUMO = -0.114474347698187
   mo_energy = [-8.18590737e+00 -8.73829505e-01 -1.14474348e-01 -5.51785480e-02
 -5.51785480e-02 -4.33765397e-02  1.26948007e-02  1.26948007e-02
  1.46944853e-01  2.67118621e-01  2.67118621e-01  3.70897902e-01
  3.70897902e-01  3.70897902e-01  1.01839529e+00  1.07865870e+00
  1.07865870e+00  1.31343167e+00  1.31343167e+00  1.31343167e+00
  3.52992781e+00  3.52992781e+00  3.69839340e+00  3.69839340e+00
  3.69839340e+00  4.81039737e+00  1.22780766e+01  1.22780766e+01
  1.82107722e+01  5.50972898e+01  5.50972898e+01  6.32167704e+01
  2.66116807e+02]
B1g nocc = 0
   mo_energy = [-5.51785480e-02  1.26948007e-02  2.67118621e-01  3.70897902e-01
  3.70897902e-01  1.07865870e+00  1.31343167e+00  1.31343167e+00
  3.52992781e+00  3.69839340e+00  3.69839340e+00  1.22780766e+01
  5.50972898e+01]
B2g nocc = 0
   mo_energy = [-5.51785480e-02  1.26948007e-02  2.67118621e-01  3.70897902e-01
  3.70897902e-01  1.07865870e+00  1.31343167e+00  1.31343167e+00
  3.52992781e+00  3.69839340e+00  3.69839340e+00  1.22780766e+01
  5.50972898e+01]
B3g nocc = 0
   mo_energy = [-5.51785480e-02  1.26948007e-02  2.67118621e-01  3.70897902e-01
  3.70897902e-01  1.07865870e+00  1.31343167e+00  1.31343167e+00
  3.52992781e+00  3.69839340e+00  3.69839340e+00  1.22780766e+01
  5.50972898e+01]
Au nocc = 0
   mo_energy = [ 0.03456119  0.32930202  1.18511207  3.71424063 15.06085684]
B1u nocc = 0
   mo_energy = [-2.75872005e-01 -7.84612009e-02 -3.87448519e-02  3.45611865e-02
  3.45611865e-02  8.65740767e-02  3.29302016e-01  3.29302016e-01
  7.06047306e-01  1.18511207e+00  1.18511207e+00  2.82061304e+00
  3.71424063e+00  3.71424063e+00  9.50792182e+00  1.50608568e+01
  1.50608568e+01  3.21717729e+01  1.11463460e+02]
B2u nocc = 0
   mo_energy = [-2.75872005e-01 -7.84612009e-02 -3.87448519e-02  3.45611865e-02
  3.45611865e-02  8.65740767e-02  3.29302016e-01  3.29302016e-01
  7.06047306e-01  1.18511207e+00  1.18511207e+00  2.82061304e+00
  3.71424063e+00  3.71424063e+00  9.50792182e+00  1.50608568e+01
  1.50608568e+01  3.21717729e+01  1.11463460e+02]
B3u nocc = 0
   mo_energy = [-2.75872005e-01 -7.84612009e-02 -3.87448519e-02  3.45611865e-02
  3.45611865e-02  8.65740767e-02  3.29302016e-01  3.29302016e-01
  7.06047306e-01  1.18511207e+00  1.18511207e+00  2.82061304e+00
  3.71424063e+00  3.71424063e+00  9.50792182e+00  1.50608568e+01
  1.50608568e+01  3.21717729e+01  1.11463460e+02]
E1 = -30.355480766656505  E_coul = 6.118003505751575
cycle= 24 E= -24.2374772609049  delta_E= 2.13e-14  |g|= 5.31e-12  |ddm|= 2.49e-11
    CPU time for cycle= 24      0.19 sec, wall time      0.05 sec
diis-norm(errvec)=7.51533e-12
Linear dependence found in DIIS error vectors.
diis-c [-2.89052492e-16  1.25000000e-01  1.25000000e-01  1.25000000e-01
  1.25000000e-01  1.25000000e-01  1.25000000e-01  1.25000000e-01
  1.25000000e-01]
HOMO (Ag) = -0.873829505419511  LUMO (B1u) = -0.275872004554092
irrep_nelec = [4, 0, 0, 0, 0, 0, 0, 0]
Ag nocc = 2  HOMO = -0.873829505419511  LUMO = -0.114474347698154
   mo_energy = [-8.18590737e+00 -8.73829505e-01 -1.14474348e-01 -5.51785480e-02
 -5.51785480e-02 -4.33765397e-02  1.26948007e-02  1.26948007e-02
  1.46944853e-01  2.67118621e-01  2.67118621e-01  3.70897902e-01
  3.70897902e-01  3.70897902e-01  1.01839529e+00  1.07865870e+00
  1.07865870e+00  1.31343167e+00  1.31343167e+00  1.31343167e+00
  3.52992781e+00  3.52992781e+00  3.69839340e+00  3.69839340e+00
  3.69839340e+00  4.81039737e+00  1.22780766e+01  1.22780766e+01
  1.82107722e+01  5.50972898e+01  5.50972898e+01  6.32167704e+01
  2.66116807e+02]
B1g nocc = 0
   mo_energy = [-5.51785480e-02  1.26948007e-02  2.67118621e-01  3.70897902e-01
  3.70897902e-01  1.07865870e+00  1.31343167e+00  1.31343167e+00
  3.52992781e+00  3.69839340e+00  3.69839340e+00  1.22780766e+01
  5.50972898e+01]
B2g nocc = 0
   mo_energy = [-5.51785480e-02  1.26948007e-02  2.67118621e-01  3.70897902e-01
  3.70897902e-01  1.07865870e+00  1.31343167e+00  1.31343167e+00
  3.52992781e+00  3.69839340e+00  3.69839340e+00  1.22780766e+01
  5.50972898e+01]
B3g nocc = 0
   mo_energy = [-5.51785480e-02  1.26948007e-02  2.67118621e-01  3.70897902e-01
  3.70897902e-01  1.07865870e+00  1.31343167e+00  1.31343167e+00
  3.52992781e+00  3.69839340e+00  3.69839340e+00  1.22780766e+01
  5.50972898e+01]
Au nocc = 0
   mo_energy = [ 0.03456119  0.32930202  1.18511207  3.71424063 15.06085684]
B1u nocc = 0
   mo_energy = [-2.75872005e-01 -7.84612009e-02 -3.87448519e-02  3.45611865e-02
  3.45611865e-02  8.65740767e-02  3.29302016e-01  3.29302016e-01
  7.06047306e-01  1.18511207e+00  1.18511207e+00  2.82061304e+00
  3.71424063e+00  3.71424063e+00  9.50792182e+00  1.50608568e+01
  1.50608568e+01  3.21717729e+01  1.11463460e+02]
B2u nocc = 0
   mo_energy = [-2.75872005e-01 -7.84612009e-02 -3.87448519e-02  3.45611865e-02
  3.45611865e-02  8.65740767e-02  3.29302016e-01  3.29302016e-01
  7.06047306e-01  1.18511207e+00  1.18511207e+00  2.82061304e+00
  3.71424063e+00  3.71424063e+00  9.50792182e+00  1.50608568e+01
  1.50608568e+01  3.21717729e+01  1.11463460e+02]
B3u nocc = 0
   mo_energy = [-2.75872005e-01 -7.84612009e-02 -3.87448519e-02  3.45611865e-02
  3.45611865e-02  8.65740767e-02  3.29302016e-01  3.29302016e-01
  7.06047306e-01  1.18511207e+00  1.18511207e+00  2.82061304e+00
  3.71424063e+00  3.71424063e+00  9.50792182e+00  1.50608568e+01
  1.50608568e+01  3.21717729e+01  1.11463460e+02]
E1 = -30.355480766657525  E_coul = 6.118003505752611
cycle= 25 E= -24.2374772609049  delta_E= 1.78e-14  |g|= 3.19e-12  |ddm|= 8.5e-12
    CPU time for cycle= 25      0.19 sec, wall time      0.05 sec
diis-norm(errvec)=4.55873e-12
Linear dependence found in DIIS error vectors.
diis-c [-2.89052492e-16  1.25000000e-01  1.25000000e-01  1.25000000e-01
  1.25000000e-01  1.25000000e-01  1.25000000e-01  1.25000000e-01
  1.25000000e-01]
HOMO (Ag) = -0.873829505419309  LUMO (B3u) = -0.275872004553858
irrep_nelec = [4, 0, 0, 0, 0, 0, 0, 0]
Ag nocc = 2  HOMO = -0.873829505419309  LUMO = -0.114474347698159
   mo_energy = [-8.18590737e+00 -8.73829505e-01 -1.14474348e-01 -5.51785480e-02
 -5.51785480e-02 -4.33765397e-02  1.26948007e-02  1.26948007e-02
  1.46944853e-01  2.67118621e-01  2.67118621e-01  3.70897902e-01
  3.70897902e-01  3.70897902e-01  1.01839529e+00  1.07865870e+00
  1.07865870e+00  1.31343167e+00  1.31343167e+00  1.31343167e+00
  3.52992781e+00  3.52992781e+00  3.69839340e+00  3.69839340e+00
  3.69839340e+00  4.81039737e+00  1.22780766e+01  1.22780766e+01
  1.82107722e+01  5.50972898e+01  5.50972898e+01  6.32167704e+01
  2.66116807e+02]
B1g nocc = 0
   mo_energy = [-5.51785480e-02  1.26948007e-02  2.67118621e-01  3.70897902e-01
  3.70897902e-01  1.07865870e+00  1.31343167e+00  1.31343167e+00
  3.52992781e+00  3.69839340e+00  3.69839340e+00  1.22780766e+01
  5.50972898e+01]
B2g nocc = 0
   mo_energy = [-5.51785480e-02  1.26948007e-02  2.67118621e-01  3.70897902e-01
  3.70897902e-01  1.07865870e+00  1.31343167e+00  1.31343167e+00
  3.52992781e+00  3.69839340e+00  3.69839340e+00  1.22780766e+01
  5.50972898e+01]
B3g nocc = 0
   mo_energy = [-5.51785480e-02  1.26948007e-02  2.67118621e-01  3.70897902e-01
  3.70897902e-01  1.07865870e+00  1.31343167e+00  1.31343167e+00
  3.52992781e+00  3.69839340e+00  3.69839340e+00  1.22780766e+01
  5.50972898e+01]
Au nocc = 0
   mo_energy = [ 0.03456119  0.32930202  1.18511207  3.71424063 15.06085684]
B1u nocc = 0
   mo_energy = [-2.75872005e-01 -7.84612009e-02 -3.87448519e-02  3.45611865e-02
  3.45611865e-02  8.65740767e-02  3.29302016e-01  3.29302016e-01
  7.06047306e-01  1.18511207e+00  1.18511207e+00  2.82061304e+00
  3.71424063e+00  3.71424063e+00  9.50792182e+00  1.50608568e+01
  1.50608568e+01  3.21717729e+01  1.11463460e+02]
B2u nocc = 0
   mo_energy = [-2.75872005e-01 -7.84612009e-02 -3.87448519e-02  3.45611865e-02
  3.45611865e-02  8.65740767e-02  3.29302016e-01  3.29302016e-01
  7.06047306e-01  1.18511207e+00  1.18511207e+00  2.82061304e+00
  3.71424063e+00  3.71424063e+00  9.50792182e+00  1.50608568e+01
  1.50608568e+01  3.21717729e+01  1.11463460e+02]
B3u nocc = 0
   mo_energy = [-2.75872005e-01 -7.84612009e-02 -3.87448519e-02  3.45611865e-02
  3.45611865e-02  8.65740767e-02  3.29302016e-01  3.29302016e-01
  7.06047306e-01  1.18511207e+00  1.18511207e+00  2.82061304e+00
  3.71424063e+00  3.71424063e+00  9.50792182e+00  1.50608568e+01
  1.50608568e+01  3.21717729e+01  1.11463460e+02]
E1 = -30.355480766658033  E_coul = 6.118003505753087
cycle= 26 E= -24.2374772609049  delta_E= -3.2e-14  |g|= 2.81e-12  |ddm|= 9.84e-13
    CPU time for cycle= 26      0.21 sec, wall time      0.05 sec
HOMO (Ag) = -0.873829505418462  LUMO (B2u) = -0.275872004552613
irrep_nelec = [4, 0, 0, 0, 0, 0, 0, 0]
Ag nocc = 2  HOMO = -0.873829505418462  LUMO = -0.114474347698106
   mo_energy = [-8.18590737e+00 -8.73829505e-01 -1.14474348e-01 -5.51785480e-02
 -5.51785480e-02 -4.33765397e-02  1.26948007e-02  1.26948007e-02
  1.46944853e-01  2.67118621e-01  2.67118621e-01  3.70897902e-01
  3.70897902e-01  3.70897902e-01  1.01839529e+00  1.07865870e+00
  1.07865870e+00  1.31343167e+00  1.31343167e+00  1.31343167e+00
  3.52992781e+00  3.52992781e+00  3.69839340e+00  3.69839340e+00
  3.69839340e+00  4.81039737e+00  1.22780766e+01  1.22780766e+01
  1.82107722e+01  5.50972898e+01  5.50972898e+01  6.32167704e+01
  2.66116807e+02]
B1g nocc = 0
   mo_energy = [-5.51785480e-02  1.26948007e-02  2.67118621e-01  3.70897902e-01
  3.70897902e-01  1.07865870e+00  1.31343167e+00  1.31343167e+00
  3.52992781e+00  3.69839340e+00  3.69839340e+00  1.22780766e+01
  5.50972898e+01]
B2g nocc = 0
   mo_energy = [-5.51785480e-02  1.26948007e-02  2.67118621e-01  3.70897902e-01
  3.70897902e-01  1.07865870e+00  1.31343167e+00  1.31343167e+00
  3.52992781e+00  3.69839340e+00  3.69839340e+00  1.22780766e+01
  5.50972898e+01]
B3g nocc = 0
   mo_energy = [-5.51785480e-02  1.26948007e-02  2.67118621e-01  3.70897902e-01
  3.70897902e-01  1.07865870e+00  1.31343167e+00  1.31343167e+00
  3.52992781e+00  3.69839340e+00  3.69839340e+00  1.22780766e+01
  5.50972898e+01]
Au nocc = 0
   mo_energy = [ 0.03456119  0.32930202  1.18511207  3.71424063 15.06085684]
B1u nocc = 0
   mo_energy = [-2.75872005e-01 -7.84612009e-02 -3.87448519e-02  3.45611865e-02
  3.45611865e-02  8.65740767e-02  3.29302016e-01  3.29302016e-01
  7.06047306e-01  1.18511207e+00  1.18511207e+00  2.82061304e+00
  3.71424063e+00  3.71424063e+00  9.50792182e+00  1.50608568e+01
  1.50608568e+01  3.21717729e+01  1.11463460e+02]
B2u nocc = 0
   mo_energy = [-2.75872005e-01 -7.84612009e-02 -3.87448519e-02  3.45611865e-02
  3.45611865e-02  8.65740767e-02  3.29302016e-01  3.29302016e-01
  7.06047306e-01  1.18511207e+00  1.18511207e+00  2.82061304e+00
  3.71424063e+00  3.71424063e+00  9.50792182e+00  1.50608568e+01
  1.50608568e+01  3.21717729e+01  1.11463460e+02]
B3u nocc = 0
   mo_energy = [-2.75872005e-01 -7.84612009e-02 -3.87448519e-02  3.45611865e-02
  3.45611865e-02  8.65740767e-02  3.29302016e-01  3.29302016e-01
  7.06047306e-01  1.18511207e+00  1.18511207e+00  2.82061304e+00
  3.71424063e+00  3.71424063e+00  9.50792182e+00  1.50608568e+01
  1.50608568e+01  3.21717729e+01  1.11463460e+02]
E1 = -30.355480766659856  E_coul = 6.118003505754911
Extra cycle  E= -24.2374772609049  delta_E=    0  |g|= 9.2e-13  |ddm|= 9.84e-13
    CPU time for scf_cycle     10.88 sec, wall time      2.80 sec
    CPU time for SCF     10.89 sec, wall time      2.82 sec
converged SCF energy = -24.2374772609049
