#INFO: **** input file is /lustre09/project/6004934/jaafar1/PySCF-MRCC/Boron/neutral/dawCV4Z/UHF/input.py ****
import pyscf
from pyscf import cc, lib, tools, scf, symm, ao2mo
from pyscf.gto.basis import parse_gaussian
from pyscf.scf import atom_hf

name = 'out'
mol = pyscf.M(
    atom = '''
        B
    ''',
    unit = 'angstrom',
    basis = {
            'B' : parse_gaussian.load('B-d-aug-cc-pwCVQZ.gbs', 'B')
    },
    charge = 0,
    spin = 1,
    symmetry = True,
    verbose = 9,
    symmetry_subgroup = 'D2h',
    output = name +'.txt',
    max_memory = 32000,
)

original_AtomSphAverageRHF = atom_hf.AtomSphAverageRHF

class CustomAtomSphAverageRHF(original_AtomSphAverageRHF):
    def __init__(self, mol):
        super().__init__(mol)
        self.max_cycle = 9999
        self.direct_scf = False

atom_hf.AtomSphAverageRHF = CustomAtomSphAverageRHF

mf = mol.UHF().set(
    conv_tol=1e-13,
    max_cycle=9999,
    ddm_tol=1e-12,
    direct_scf=False,
    chkfile=name + '.chk',
    init_guess='atom',
    irrep_nelec={'Ag': 4, 'B3u': 1}
)

mf.kernel()

atom_hf.AtomSphAverageRHF = original_AtomSphAverageRHF

#pyscf.tools.fcidump.from_chkfile_uhf('FCIdump',name+'.chk',tol=1e-18, float_format='% 0.20E',molpro_orbsym=False,orbsym=None)
pyscf.tools.fcidump.from_scf_uhf(mf,'fort.55',tol=1e-18, float_format='% 0.20E',molpro_orbsym=False)
#MRCCInterface.run_mrcc(mf, fort_file='fort.55', mrcc_input_file='MINP', tol=1e-18, float_format='% 0.20E', molpro_orbsym=False)
#INFO: ******************** input file end ********************


System: uname_result(system='Linux', node='rc32001', release='5.14.0-687.15.1.el9_8.x86_64', version='#1 SMP PREEMPT_DYNAMIC Thu Jun 11 08:51:45 EDT 2026', machine='x86_64')  Threads 4
Python 3.13.2 (main, Feb  5 2025, 15:06:39) [GCC 13.3.0]
numpy 2.2.2  scipy 1.15.1  h5py 3.13.0
Date: Thu Jun 18 03:03:27 2026
PySCF version 2.10.0
PySCF path  /home/jaafar1/links/projects/rrg-tzeng/jaafar1/VENV/MRCCInterface/lib/python3.13/site-packages/pyscf

[CONFIG] ARGPARSE = False
[CONFIG] DEBUG = False
[CONFIG] MAX_MEMORY = 4000
[CONFIG] TMPDIR = /tmp
[CONFIG] UNIT = angstrom
[CONFIG] VERBOSE = 3
[CONFIG] conf_file = None
[INPUT] verbose = 9
[INPUT] max_memory = 32000 
[INPUT] num. atoms = 1
[INPUT] num. electrons = 5
[INPUT] charge = 0
[INPUT] spin (= nelec alpha-beta = 2S) = 1
[INPUT] symmetry True subgroup D2h
[INPUT] Mole.unit = angstrom
[INPUT] Symbol           X                Y                Z      unit          X                Y                Z       unit  Magmom
[INPUT]  1 B      0.000000000000   0.000000000000   0.000000000000 AA    0.000000000000   0.000000000000   0.000000000000 Bohr   0.0
[INPUT] ---------------- BASIS SET ---------------- 
[INPUT] l, kappa, [nprim/nctr], expnt,             c_1 c_2 ...
[INPUT] B
[INPUT] 0    0    [1    /1   ]  28.788               1
[INPUT] 0    0    [1    /1   ]  10.414               1
[INPUT] 0    0    [12   /2   ]  23870             8.8e-05 -1.8e-05
                                3575              0.000687 -0.000139
                                812.8             0.0036 -0.000725
                                229.7             0.014949 -0.003063
                                74.69             0.051435 -0.010581
                                26.81             0.143302 -0.031365
                                10.32             0.300935 -0.071012
                                4.178             0.403526 -0.132103
                                1.727             0.22534 -0.123072
                                0.4704            0.015407 0.261819
                                0.1896            -0.003955 0.586662
                                0.07394           0.001124 0.290494
[INPUT] 0    0    [1    /1   ]  3.768                1
[INPUT] 0    0    [1    /1   ]  0.4704               1
[INPUT] 0    0    [1    /1   ]  0.1896               1
[INPUT] 0    0    [1    /1   ]  0.07394              1
[INPUT] 0    0    [1    /1   ]  0.02721              1
[INPUT] 0    0    [1    /1   ]  0.01                 1
[INPUT] 1    0    [1    /1   ]  36.971               1
[INPUT] 1    0    [1    /1   ]  11.925               1
[INPUT] 1    0    [1    /1   ]  3.847                1
[INPUT] 1    0    [1    /1   ]  0.5071               1
[INPUT] 1    0    [6    /1   ]  22.26             0.005095
                                5.058             0.033206
                                1.487             0.132314
                                0.5071            0.331818
                                0.1812            0.472063
                                0.06463           0.257979
[INPUT] 1    0    [1    /1   ]  0.1812               1
[INPUT] 1    0    [1    /1   ]  0.06463              1
[INPUT] 1    0    [1    /1   ]  0.01878              1
[INPUT] 1    0    [1    /1   ]  0.00546              1
[INPUT] 2    0    [1    /1   ]  16.574               1
[INPUT] 2    0    [1    /1   ]  3.718                1
[INPUT] 2    0    [1    /1   ]  1.11                 1
[INPUT] 2    0    [1    /1   ]  0.402                1
[INPUT] 2    0    [1    /1   ]  0.145                1
[INPUT] 2    0    [1    /1   ]  0.0466               1
[INPUT] 2    0    [1    /1   ]  0.015                1
[INPUT] 3    0    [1    /1   ]  3.692                1
[INPUT] 3    0    [1    /1   ]  0.882                1
[INPUT] 3    0    [1    /1   ]  0.311                1
[INPUT] 3    0    [1    /1   ]  0.113                1
[INPUT] 3    0    [1    /1   ]  0.0411               1
[INPUT] 4    0    [1    /1   ]  0.673                1
[INPUT] 4    0    [1    /1   ]  0.273                1
[INPUT] 4    0    [1    /1   ]  0.111                1

nuclear repulsion = 0
point group symmetry = SO3, use subgroup D2h
symmetry origin: [0. 0. 0.]
symmetry axis x: [1. 0. 0.]
symmetry axis y: [0. 1. 0.]
symmetry axis z: [0. 0. 1.]
num. orbitals of irrep Ag = 33
num. orbitals of irrep B1g = 13
num. orbitals of irrep B2g = 13
num. orbitals of irrep B3g = 13
num. orbitals of irrep Au = 5
num. orbitals of irrep B1u = 19
num. orbitals of irrep B2u = 19
num. orbitals of irrep B3u = 19
number of shells = 33
number of NR pGTOs = 159
number of NR cGTOs = 134
basis = {'B': [[0, [28.788, 1.0]], [0, [10.414, 1.0]], [0, [23870.0, 8.8e-05, -1.8e-05], [3575.0, 0.000687, -0.000139], [812.8, 0.0036, -0.000725], [229.7, 0.014949, -0.003063], [74.69, 0.051435, -0.010581], [26.81, 0.143302, -0.031365], [10.32, 0.300935, -0.071012], [4.178, 0.403526, -0.132103], [1.727, 0.22534, -0.123072], [0.4704, 0.015407, 0.261819], [0.1896, -0.003955, 0.586662], [0.07394, 0.001124, 0.290494]], [0, [3.768, 1.0]], [0, [0.4704, 1.0]], [0, [0.1896, 1.0]], [0, [0.07394, 1.0]], [0, [0.02721, 1.0]], [0, [0.01, 1.0]], [1, [36.971, 1.0]], [1, [11.925, 1.0]], [1, [3.847, 1.0]], [1, [0.5071, 1.0]], [1, [22.26, 0.005095], [5.058, 0.033206], [1.487, 0.132314], [0.5071, 0.331818], [0.1812, 0.472063], [0.06463, 0.257979]], [1, [0.1812, 1.0]], [1, [0.06463, 1.0]], [1, [0.01878, 1.0]], [1, [0.00546, 1.0]], [2, [16.574, 1.0]], [2, [3.718, 1.0]], [2, [1.11, 1.0]], [2, [0.402, 1.0]], [2, [0.145, 1.0]], [2, [0.0466, 1.0]], [2, [0.015, 1.0]], [3, [3.692, 1.0]], [3, [0.882, 1.0]], [3, [0.311, 1.0]], [3, [0.113, 1.0]], [3, [0.0411, 1.0]], [4, [0.673, 1.0]], [4, [0.273, 1.0]], [4, [0.111, 1.0]]]}
ecp = {}
bas 0, expnt(s) = [28.788]
bas 1, expnt(s) = [10.414]
bas 2, expnt(s) = [2.387e+04 3.575e+03 8.128e+02 2.297e+02 7.469e+01 2.681e+01 1.032e+01
 4.178e+00 1.727e+00 4.704e-01 1.896e-01 7.394e-02]
bas 3, expnt(s) = [3.768]
bas 4, expnt(s) = [0.4704]
bas 5, expnt(s) = [0.1896]
bas 6, expnt(s) = [0.07394]
bas 7, expnt(s) = [0.02721]
bas 8, expnt(s) = [0.01]
bas 9, expnt(s) = [36.971]
bas 10, expnt(s) = [11.925]
bas 11, expnt(s) = [3.847]
bas 12, expnt(s) = [0.5071]
bas 13, expnt(s) = [22.26     5.058    1.487    0.5071   0.1812   0.06463]
bas 14, expnt(s) = [0.1812]
bas 15, expnt(s) = [0.06463]
bas 16, expnt(s) = [0.01878]
bas 17, expnt(s) = [0.00546]
bas 18, expnt(s) = [16.574]
bas 19, expnt(s) = [3.718]
bas 20, expnt(s) = [1.11]
bas 21, expnt(s) = [0.402]
bas 22, expnt(s) = [0.145]
bas 23, expnt(s) = [0.0466]
bas 24, expnt(s) = [0.015]
bas 25, expnt(s) = [3.692]
bas 26, expnt(s) = [0.882]
bas 27, expnt(s) = [0.311]
bas 28, expnt(s) = [0.113]
bas 29, expnt(s) = [0.0411]
bas 30, expnt(s) = [0.673]
bas 31, expnt(s) = [0.273]
bas 32, expnt(s) = [0.111]
CPU time:         0.78
arg.atm = [[ 5 20  1 23  0  0]]
arg.bas = [[  0   0   1   1   0  24  25   0]
 [  0   0   1   1   0  26  27   0]
 [  0   0  12   2   0  28  40   0]
 [  0   0   1   1   0  64  65   0]
 [  0   0   1   1   0  66  67   0]
 [  0   0   1   1   0  68  69   0]
 [  0   0   1   1   0  70  71   0]
 [  0   0   1   1   0  72  73   0]
 [  0   0   1   1   0  74  75   0]
 [  0   1   1   1   0  76  77   0]
 [  0   1   1   1   0  78  79   0]
 [  0   1   1   1   0  80  81   0]
 [  0   1   1   1   0  82  83   0]
 [  0   1   6   1   0  84  90   0]
 [  0   1   1   1   0  96  97   0]
 [  0   1   1   1   0  98  99   0]
 [  0   1   1   1   0 100 101   0]
 [  0   1   1   1   0 102 103   0]
 [  0   2   1   1   0 104 105   0]
 [  0   2   1   1   0 106 107   0]
 [  0   2   1   1   0 108 109   0]
 [  0   2   1   1   0 110 111   0]
 [  0   2   1   1   0 112 113   0]
 [  0   2   1   1   0 114 115   0]
 [  0   2   1   1   0 116 117   0]
 [  0   3   1   1   0 118 119   0]
 [  0   3   1   1   0 120 121   0]
 [  0   3   1   1   0 122 123   0]
 [  0   3   1   1   0 124 125   0]
 [  0   3   1   1   0 126 127   0]
 [  0   4   1   1   0 128 129   0]
 [  0   4   1   1   0 130 131   0]
 [  0   4   1   1   0 132 133   0]]
arg.env = [ 0.00000000e+00  0.00000000e+00  0.00000000e+00  0.00000000e+00
  0.00000000e+00  0.00000000e+00  0.00000000e+00  0.00000000e+00
  0.00000000e+00  0.00000000e+00  0.00000000e+00  0.00000000e+00
  0.00000000e+00  0.00000000e+00  0.00000000e+00  0.00000000e+00
  0.00000000e+00  0.00000000e+00  0.00000000e+00  0.00000000e+00
  0.00000000e+00  0.00000000e+00  0.00000000e+00  0.00000000e+00
  2.87880000e+01  3.13995660e+01  1.04140000e+01  1.46463094e+01
  2.38700000e+04  3.57500000e+03  8.12800000e+02  2.29700000e+02
  7.46900000e+01  2.68100000e+01  1.03200000e+01  4.17800000e+00
  1.72700000e+00  4.70400000e-01  1.89600000e-01  7.39400000e-02
  4.26959795e-01  8.02469928e-01  1.38453923e+00  2.22842429e+00
  3.30157056e+00  4.26569556e+00  4.37771484e+00  2.97929045e+00
  8.57674579e-01  2.21097363e-02 -2.87104654e-03  4.02662227e-04
 -8.73327028e-02 -1.62362944e-01 -2.78830874e-01 -4.56596759e-01
 -6.79185868e-01 -9.33647597e-01 -1.03301493e+00 -9.75335628e-01
 -4.68428805e-01  3.75722087e-01  4.25874650e-01  1.04066712e-01
  3.76800000e+00  6.83279191e+00  4.70400000e-01  1.43504496e+00
  1.89600000e-01  7.25928378e-01  7.39400000e-02  3.58240439e-01
  2.72100000e-02  1.69262765e-01  1.00000000e-02  7.98941580e-02
  3.69710000e+01  2.65956672e+02  1.19250000e+01  6.46483399e+01
  3.84700000e+00  1.57176323e+01  5.07100000e-01  1.24839323e+00
  2.22600000e+01  5.05800000e+00  1.48700000e+00  5.07100000e-01
  1.81200000e-01  6.46300000e-02  7.18679052e-01  7.34808959e-01
  6.33838854e-01  4.14239303e-01  1.62810366e-01  2.45251345e-02
  1.81200000e-01  3.44891217e-01  6.46300000e-02  9.50664086e-02
  1.87800000e-02  2.02816777e-02  5.46000000e-03  4.32987338e-03
  1.65740000e+01  3.55244384e+02  3.71800000e+00  2.59759124e+01
  1.11000000e+00  3.13216476e+00  4.02000000e-01  5.29571956e-01
  1.45000000e-01  8.89044276e-02  4.66000000e-02  1.21956440e-02
  1.50000000e-02  1.67760260e-03  3.69200000e+00  3.72691227e+01
  8.82000000e-01  1.48701270e+00  3.11000000e-01  1.42469282e-01
  1.13000000e-01  1.46028243e-02  4.11000000e-02  1.50021831e-03
  6.73000000e-01  4.42548150e-01  2.73000000e-01  3.70140308e-02
  1.11000000e-01  3.11571191e-03]
ecpbas  = []


******** <class 'pyscf.scf.uhf_symm.SymAdaptedUHF'> ********
method = SymAdaptedUHF
initial guess = atom
damping factor = 0
level_shift factor = 0
DIIS = <class 'pyscf.scf.diis.CDIIS'>
diis_start_cycle = 1
diis_space = 8
diis_damp = 0
SCF conv_tol = 1e-13
SCF conv_tol_grad = None
SCF ddm_tol = 1e-12
SCF max_cycles = 9999
direct_scf = False
chkfile to save SCF result = out.chk
max_memory 32000 MB (current use 123 MB)
number electrons alpha = 3  beta = 2
irrep_nelec {'Ag': 4, 'B3u': 1}
Freeze 5 electrons in irreps ['Ag', 'B3u']
    0 free electrons in irreps B1g B2g B3g Au B1u B2u
cond(S) = 91764.10755826811

WARN: Singularity detected in overlap matrix (condition number = 9.18e+04). SCF may be inaccurate and hard to converge.

Set gradient conv threshold to 3.16228e-07
Spherically averaged atomic HF for {'B'}


******** <class '__main__.CustomAtomSphAverageRHF'> ********
method = CustomAtomSphAverageRHF
initial guess = minao
damping factor = 0
level_shift factor = 0
DIIS = <class 'pyscf.scf.diis.CDIIS'>
diis_start_cycle = 1
diis_space = 8
diis_damp = 0
SCF conv_tol = 1e-09
SCF conv_tol_grad = None
SCF ddm_tol = 1e-10
SCF max_cycles = 9999
direct_scf = False
chkfile to save SCF result = /tmp/tmpqe16eb1i
max_memory 32000 MB (current use 125 MB)
atom = B
Set gradient conv threshold to 3.16228e-05
Initial guess from minao.
Nelec from initial guess = 4.99998023704312
E1 = -32.574299488069926  E_coul = 8.230281209420115
init E= -24.3440182786498
l = 0  e_0 = -7.61975299
l = 0  e_1 = -0.471853143
l = 0  e_2 = 0.0169544057
l = 0  e_3 = 0.096875545
l = 0  e_4 = 0.387987479
l = 0  e_5 = 1.39593776
l = 0  e_6 = 5.30596478
l = 0  e_7 = 18.7593258
l = 0  e_8 = 63.7810389
l = 0  e_9 = 266.679485
l = 1  e_0 = 0.00858799144
l = 1  e_1 = 0.0202295087
l = 1  e_2 = 0.0840259021
l = 1  e_3 = 0.328307729
l = 1  e_4 = 1.07306594
l = 1  e_5 = 3.28880224
l = 1  e_6 = 10.040074
l = 1  e_7 = 32.7335464
l = 1  e_8 = 112.029991
l = 2  e_0 = 0.0492022296
l = 2  e_1 = 0.181038563
l = 2  e_2 = 0.537120672
l = 2  e_3 = 1.45429615
l = 2  e_4 = 4.00074914
l = 2  e_5 = 12.8189076
l = 2  e_6 = 55.6655357
l = 3  e_0 = 0.17375041
l = 3  e_1 = 0.554553911
l = 3  e_2 = 1.52244574
l = 3  e_3 = 4.16491112
l = 3  e_4 = 15.604403
l = 4  e_0 = 0.571491782
l = 4  e_1 = 1.61569333
l = 4  e_2 = 4.11351122
    CPU time for initialize scf      1.70 sec, wall time      0.53 sec
l = 0  e_0 = -7.61975299
l = 0  e_1 = -0.471853143
l = 0  e_2 = 0.0169544057
l = 0  e_3 = 0.096875545
l = 0  e_4 = 0.387987479
l = 0  e_5 = 1.39593776
l = 0  e_6 = 5.30596478
l = 0  e_7 = 18.7593258
l = 0  e_8 = 63.7810389
l = 0  e_9 = 266.679485
l = 1  e_0 = 0.00858799144
l = 1  e_1 = 0.0202295087
l = 1  e_2 = 0.0840259021
l = 1  e_3 = 0.328307729
l = 1  e_4 = 1.07306594
l = 1  e_5 = 3.28880224
l = 1  e_6 = 10.040074
l = 1  e_7 = 32.7335464
l = 1  e_8 = 112.029991
l = 2  e_0 = 0.0492022296
l = 2  e_1 = 0.181038563
l = 2  e_2 = 0.537120672
l = 2  e_3 = 1.45429615
l = 2  e_4 = 4.00074914
l = 2  e_5 = 12.8189076
l = 2  e_6 = 55.6655357
l = 3  e_0 = 0.17375041
l = 3  e_1 = 0.554553911
l = 3  e_2 = 1.52244574
l = 3  e_3 = 4.16491112
l = 3  e_4 = 15.604403
l = 4  e_0 = 0.571491782
l = 4  e_1 = 1.61569333
l = 4  e_2 = 4.11351122
l = 0  occ = 2 + 0
l = 1  occ = 0 + 0.3333
l = 2  occ = 0 + 0
l = 3  occ = 0 + 0
E1 = -30.92934777034858  E_coul = 6.6072511995313965
cycle= 1 E= -24.3220965708172  delta_E= 0.0219  |g|=    0  |ddm|= 0.529
    CPU time for cycle= 1      0.16 sec, wall time      0.04 sec
diis-norm(errvec)=0.20891
diis-c [-0.04364319  1.        ]
l = 0  e_0 = -8.09660738
l = 0  e_1 = -0.733777613
l = 0  e_2 = -0.018912219
l = 0  e_3 = 0.0420381528
l = 0  e_4 = 0.262186911
l = 0  e_5 = 1.14728112
l = 0  e_6 = 4.92520842
l = 0  e_7 = 18.3078014
l = 0  e_8 = 63.297826
l = 0  e_9 = 266.181376
l = 1  e_0 = -0.166979974
l = 1  e_1 = -0.00356376521
l = 1  e_2 = 0.0334529065
l = 1  e_3 = 0.196322258
l = 1  e_4 = 0.827796694
l = 1  e_5 = 2.93588294
l = 1  e_6 = 9.61115576
l = 1  e_7 = 32.2616167
l = 1  e_8 = 111.537996
l = 2  e_0 = 0.028124464
l = 2  e_1 = 0.114733094
l = 2  e_2 = 0.388881384
l = 2  e_3 = 1.20649149
l = 2  e_4 = 3.64808897
l = 2  e_5 = 12.3799673
l = 2  e_6 = 55.1824845
l = 3  e_0 = 0.133053915
l = 3  e_1 = 0.450055306
l = 3  e_2 = 1.31723879
l = 3  e_3 = 3.83794309
l = 3  e_4 = 15.1636665
l = 4  e_0 = 0.488790319
l = 4  e_1 = 1.44697266
l = 4  e_2 = 3.82866844
l = 0  occ = 2 + 0
l = 1  occ = 0 + 0.3333
l = 2  occ = 0 + 0
l = 3  occ = 0 + 0
E1 = -32.44940182612375  E_coul = 8.083285943589962
cycle= 2 E= -24.3661158825338  delta_E= -0.044  |g|=    0  |ddm|= 0.325
    CPU time for cycle= 2      0.17 sec, wall time      0.04 sec
diis-norm(errvec)=0.156901
diis-c [-0.00137876  0.42578849  0.57421151]
l = 0  e_0 = -7.8462044
l = 0  e_1 = -0.596222085
l = 0  e_2 = 0.00399300324
l = 0  e_3 = 0.0708961375
l = 0  e_4 = 0.327988297
l = 0  e_5 = 1.27707469
l = 0  e_6 = 5.12438996
l = 0  e_7 = 18.5446346
l = 0  e_8 = 63.5529299
l = 0  e_9 = 266.44649
l = 1  e_0 = -0.0635338739
l = 1  e_1 = 0.00838676327
l = 1  e_2 = 0.0579674572
l = 1  e_3 = 0.265559232
l = 1  e_4 = 0.957033642
l = 1  e_5 = 3.12147559
l = 1  e_6 = 9.83605066
l = 1  e_7 = 32.5095683
l = 1  e_8 = 111.798488
l = 2  e_0 = 0.0407566068
l = 2  e_1 = 0.151960632
l = 2  e_2 = 0.468928634
l = 2  e_3 = 1.33802506
l = 2  e_4 = 3.83353289
l = 2  e_5 = 12.6099693
l = 2  e_6 = 55.4366996
l = 3  e_0 = 0.156345482
l = 3  e_1 = 0.50779714
l = 3  e_2 = 1.4272925
l = 3  e_3 = 4.01033413
l = 3  e_4 = 15.394393
l = 4  e_0 = 0.535158578
l = 4  e_1 = 1.53849151
l = 4  e_2 = 3.97959591
l = 0  occ = 2 + 0
l = 1  occ = 0 + 0.3333
l = 2  occ = 0 + 0
l = 3  occ = 0 + 0
E1 = -32.12044380351365  E_coul = 7.737093791318274
cycle= 3 E= -24.3833500121954  delta_E= -0.0172  |g|=    0  |ddm|= 0.148
    CPU time for cycle= 3      0.16 sec, wall time      0.04 sec
diis-norm(errvec)=0.0342382
diis-c [-1.44500282e-04  1.00615090e-01 -6.75032502e-02  9.66888160e-01]
l = 0  e_0 = -7.81087666
l = 0  e_1 = -0.56239259
l = 0  e_2 = 0.0121290683
l = 0  e_3 = 0.0834603054
l = 0  e_4 = 0.351235714
l = 0  e_5 = 1.31041937
l = 0  e_6 = 5.16096605
l = 0  e_7 = 18.5804864
l = 0  e_8 = 63.5875368
l = 0  e_9 = 266.479849
l = 1  e_0 = -0.0414539092
l = 1  e_1 = 0.0126987014
l = 1  e_2 = 0.0694085227
l = 1  e_3 = 0.289503105
l = 1  e_4 = 0.989769571
l = 1  e_5 = 3.15767028
l = 1  e_6 = 9.87237905
l = 1  e_7 = 32.544874
l = 1  e_8 = 111.832593
l = 2  e_0 = 0.0465666664
l = 2  e_1 = 0.167497545
l = 2  e_2 = 0.495921204
l = 2  e_3 = 1.37249337
l = 2  e_4 = 3.87049365
l = 2  e_5 = 12.6463604
l = 2  e_6 = 55.4716155
l = 3  e_0 = 0.16776224
l = 3  e_1 = 0.531196945
l = 3  e_2 = 1.46059015
l = 3  e_3 = 4.04765006
l = 3  e_4 = 15.4310159
l = 4  e_0 = 0.556012121
l = 4  e_1 = 1.57007851
l = 4  e_2 = 4.0166663
l = 0  occ = 2 + 0
l = 1  occ = 0 + 0.3333
l = 2  occ = 0 + 0
l = 3  occ = 0 + 0
E1 = -32.02056876530703  E_coul = 7.636042873073339
cycle= 4 E= -24.3845258922337  delta_E= -0.00118  |g|=    0  |ddm|= 0.0479
    CPU time for cycle= 4      0.16 sec, wall time      0.04 sec
diis-norm(errvec)=0.00545207
diis-c [-3.59581054e-06  6.27471926e-04  4.15364885e-02 -3.57446122e-01
  1.31528216e+00]
l = 0  e_0 = -7.80674484
l = 0  e_1 = -0.55742015
l = 0  e_2 = 0.0138983433
l = 0  e_3 = 0.0860951831
l = 0  e_4 = 0.355483598
l = 0  e_5 = 1.31508344
l = 0  e_6 = 5.16523163
l = 0  e_7 = 18.5846454
l = 0  e_8 = 63.5918754
l = 0  e_9 = 266.484486
l = 1  e_0 = -0.0385018738
l = 1  e_1 = 0.0137906127
l = 1  e_2 = 0.0719316309
l = 1  e_3 = 0.293653138
l = 1  e_4 = 0.994380864
l = 1  e_5 = 3.16209028
l = 1  e_6 = 9.87655697
l = 1  e_7 = 32.549079
l = 1  e_8 = 111.837036
l = 2  e_0 = 0.0480400332
l = 2  e_1 = 0.170759862
l = 2  e_2 = 0.500571452
l = 2  e_3 = 1.37726621
l = 2  e_4 = 3.87483656
l = 2  e_5 = 12.6504575
l = 2  e_6 = 55.475862
l = 3  e_0 = 0.170550878
l = 3  e_1 = 0.535744585
l = 3  e_2 = 1.46556436
l = 3  e_3 = 4.0521118
l = 3  e_4 = 15.4350547
l = 4  e_0 = 0.560449587
l = 4  e_1 = 1.57522476
l = 4  e_2 = 4.0213658
l = 0  occ = 2 + 0
l = 1  occ = 0 + 0.3333
l = 2  occ = 0 + 0
l = 3  occ = 0 + 0
E1 = -32.00268567696705  E_coul = 7.618125779739956
cycle= 5 E= -24.3845598972271  delta_E= -3.4e-05  |g|=    0  |ddm|= 0.00657
    CPU time for cycle= 5      0.16 sec, wall time      0.04 sec
diis-norm(errvec)=0.000417692
diis-c [-1.70975753e-08 -1.96687187e-04 -2.27820063e-03  3.31101542e-02
 -2.12887720e-01  1.18225245e+00]
l = 0  e_0 = -7.80690527
l = 0  e_1 = -0.55740408
l = 0  e_2 = 0.013925017
l = 0  e_3 = 0.0861316293
l = 0  e_4 = 0.355528798
l = 0  e_5 = 1.31508982
l = 0  e_6 = 5.1651711
l = 0  e_7 = 18.584514
l = 0  e_8 = 63.5916746
l = 0  e_9 = 266.484216
l = 1  e_0 = -0.0385430444
l = 1  e_1 = 0.0138015667
l = 1  e_2 = 0.0719663782
l = 1  e_3 = 0.293709545
l = 1  e_4 = 0.994398282
l = 1  e_5 = 3.16205138
l = 1  e_6 = 9.87645334
l = 1  e_7 = 32.5489142
l = 1  e_8 = 111.836807
l = 2  e_0 = 0.0480593303
l = 2  e_1 = 0.170794561
l = 2  e_2 = 0.500611258
l = 2  e_3 = 1.37728876
l = 2  e_4 = 3.87480704
l = 2  e_5 = 12.6503546
l = 2  e_6 = 55.4756766
l = 3  e_0 = 0.170584549
l = 3  e_1 = 0.535794306
l = 3  e_2 = 1.4656041
l = 3  e_3 = 4.05210171
l = 3  e_4 = 15.4349582
l = 4  e_0 = 0.560500769
l = 4  e_1 = 1.57527635
l = 4  e_2 = 4.02137935
l = 0  occ = 2 + 0
l = 1  occ = 0 + 0.3333
l = 2  occ = 0 + 0
l = 3  occ = 0 + 0
E1 = -32.00273782355289  E_coul = 7.618177838047509
cycle= 6 E= -24.3845599855054  delta_E= -8.83e-08  |g|=    0  |ddm|= 0.000988
    CPU time for cycle= 6      0.16 sec, wall time      0.04 sec
diis-norm(errvec)=0.00012555
diis-c [-1.60008430e-10  1.85433004e-04 -9.73420770e-05 -4.54696944e-03
  1.83561288e-02 -1.02993894e-01  1.08909664e+00]
l = 0  e_0 = -7.80682111
l = 0  e_1 = -0.557339851
l = 0  e_2 = 0.0139292257
l = 0  e_3 = 0.0861424162
l = 0  e_4 = 0.355556639
l = 0  e_5 = 1.31514761
l = 0  e_6 = 5.16524765
l = 0  e_7 = 18.5845963
l = 0  e_8 = 63.5917584
l = 0  e_9 = 266.4843
l = 1  e_0 = -0.0385047502
l = 1  e_1 = 0.0137995521
l = 1  e_2 = 0.0719739535
l = 1  e_3 = 0.293738397
l = 1  e_4 = 0.994452577
l = 1  e_5 = 3.16212322
l = 1  e_6 = 9.87653413
l = 1  e_7 = 32.5489981
l = 1  e_8 = 111.836891
l = 2  e_0 = 0.0480591298
l = 2  e_1 = 0.17080612
l = 2  e_2 = 0.500645367
l = 2  e_3 = 1.37734664
l = 2  e_4 = 3.87488012
l = 2  e_5 = 12.6504361
l = 2  e_6 = 55.475761
l = 3  e_0 = 0.17058711
l = 3  e_1 = 0.535817686
l = 3  e_2 = 1.46565545
l = 3  e_3 = 4.05217284
l = 3  e_4 = 15.4350401
l = 4  e_0 = 0.560516735
l = 4  e_1 = 1.57532044
l = 4  e_2 = 4.02144584
l = 0  occ = 2 + 0
l = 1  occ = 0 + 0.3333
l = 2  occ = 0 + 0
l = 3  occ = 0 + 0
E1 = -32.002581935757945  E_coul = 7.618021944293483
cycle= 7 E= -24.3845599914645  delta_E= -5.96e-09  |g|=    0  |ddm|= 0.000188
    CPU time for cycle= 7      0.17 sec, wall time      0.04 sec
diis-norm(errvec)=4.25823e-05
diis-c [-3.90325315e-12  2.07410577e-05 -5.51602420e-05  5.08869944e-04
 -4.49782391e-03  3.36880919e-02 -3.61520275e-01  1.33185556e+00]
l = 0  e_0 = -7.80677841
l = 0  e_1 = -0.557308099
l = 0  e_2 = 0.0139336561
l = 0  e_3 = 0.0861509532
l = 0  e_4 = 0.355573857
l = 0  e_5 = 1.31517689
l = 0  e_6 = 5.16528603
l = 0  e_7 = 18.5846381
l = 0  e_8 = 63.5918003
l = 0  e_9 = 266.484341
l = 1  e_0 = -0.0384855461
l = 1  e_1 = 0.0138016207
l = 1  e_2 = 0.0719809098
l = 1  e_3 = 0.293755675
l = 1  e_4 = 0.994480407
l = 1  e_5 = 3.16215923
l = 1  e_6 = 9.87657488
l = 1  e_7 = 32.5490405
l = 1  e_8 = 111.836933
l = 2  e_0 = 0.048062116
l = 2  e_1 = 0.170815797
l = 2  e_2 = 0.50066471
l = 2  e_3 = 1.37737554
l = 2  e_4 = 3.87491657
l = 2  e_5 = 12.6504775
l = 2  e_6 = 55.4758036
l = 3  e_0 = 0.170593296
l = 3  e_1 = 0.535832694
l = 3  e_2 = 1.46568121
l = 3  e_3 = 4.05220793
l = 3  e_4 = 15.4350818
l = 4  e_0 = 0.560529119
l = 4  e_1 = 1.5753431
l = 4  e_2 = 4.02147829
l = 0  occ = 2 + 0
l = 1  occ = 0 + 0.3333
l = 2  occ = 0 + 0
l = 3  occ = 0 + 0
E1 = -32.0024772996536  E_coul = 7.617917307208785
cycle= 8 E= -24.3845599924448  delta_E= -9.8e-10  |g|=    0  |ddm|= 7.1e-05
    CPU time for cycle= 8      0.16 sec, wall time      0.04 sec
diis-norm(errvec)=2.20399e-06
diis-c [-3.76493237e-14  1.52254347e-06  7.67082711e-07 -6.60453665e-05
  4.50519783e-04 -3.44558531e-03  3.70815979e-02 -1.46983966e-01
  1.11296119e+00]
l = 0  e_0 = -7.80677624
l = 0  e_1 = -0.557306487
l = 0  e_2 = 0.0139339447
l = 0  e_3 = 0.0861514785
l = 0  e_4 = 0.355574832
l = 0  e_5 = 1.31517837
l = 0  e_6 = 5.16528797
l = 0  e_7 = 18.5846402
l = 0  e_8 = 63.5918024
l = 0  e_9 = 266.484343
l = 1  e_0 = -0.0384846005
l = 1  e_1 = 0.0138018296
l = 1  e_2 = 0.0719813986
l = 1  e_3 = 0.293756615
l = 1  e_4 = 0.994481828
l = 1  e_5 = 3.16216105
l = 1  e_6 = 9.87657694
l = 1  e_7 = 32.5490426
l = 1  e_8 = 111.836935
l = 2  e_0 = 0.0480623579
l = 2  e_1 = 0.170816398
l = 2  e_2 = 0.500665768
l = 2  e_3 = 1.377377
l = 2  e_4 = 3.8749184
l = 2  e_5 = 12.6504796
l = 2  e_6 = 55.4758058
l = 3  e_0 = 0.170593754
l = 3  e_1 = 0.535833554
l = 3  e_2 = 1.46568252
l = 3  e_3 = 4.05220969
l = 3  e_4 = 15.4350839
l = 4  e_0 = 0.560529874
l = 4  e_1 = 1.57534427
l = 4  e_2 = 4.02147992
l = 0  occ = 2 + 0
l = 1  occ = 0 + 0.3333
l = 2  occ = 0 + 0
l = 3  occ = 0 + 0
E1 = -32.0024702964375  E_coul = 7.617910303988567
cycle= 9 E= -24.3845599924489  delta_E= -4.12e-12  |g|=    0  |ddm|= 3.14e-06
    CPU time for cycle= 9      0.17 sec, wall time      0.04 sec
diis-norm(errvec)=5.03514e-08
diis-c [-5.35522963e-17  1.21458337e+00 -3.67430572e-07  7.54239578e-06
 -5.27828021e-05  4.33296218e-04 -5.88485150e-03  2.83215443e-02
 -2.37407754e-01]
l = 0  e_0 = -7.8067762
l = 0  e_1 = -0.557306461
l = 0  e_2 = 0.0139339566
l = 0  e_3 = 0.0861514974
l = 0  e_4 = 0.355574857
l = 0  e_5 = 1.31517839
l = 0  e_6 = 5.165288
l = 0  e_7 = 18.5846402
l = 0  e_8 = 63.5918025
l = 0  e_9 = 266.484343
l = 1  e_0 = -0.038484583
l = 1  e_1 = 0.013801843
l = 1  e_2 = 0.0719814161
l = 1  e_3 = 0.293756638
l = 1  e_4 = 0.994481853
l = 1  e_5 = 3.16216108
l = 1  e_6 = 9.87657698
l = 1  e_7 = 32.5490426
l = 1  e_8 = 111.836935
l = 2  e_0 = 0.0480623714
l = 2  e_1 = 0.17081642
l = 2  e_2 = 0.500665793
l = 2  e_3 = 1.37737702
l = 2  e_4 = 3.87491843
l = 2  e_5 = 12.6504797
l = 2  e_6 = 55.4758058
l = 3  e_0 = 0.170593777
l = 3  e_1 = 0.535833579
l = 3  e_2 = 1.46568254
l = 3  e_3 = 4.05220972
l = 3  e_4 = 15.435084
l = 4  e_0 = 0.560529901
l = 4  e_1 = 1.57534429
l = 4  e_2 = 4.02147994
l = 0  occ = 2 + 0
l = 1  occ = 0 + 0.3333
l = 2  occ = 0 + 0
l = 3  occ = 0 + 0
E1 = -32.002470086596  E_coul = 7.617910094147036
cycle= 10 E= -24.384559992449  delta_E= -2.84e-14  |g|=    0  |ddm|= 1.47e-07
    CPU time for cycle= 10      0.16 sec, wall time      0.04 sec
diis-norm(errvec)=9.453e-10
Linear dependence found in DIIS error vectors.
diis-c [ 3.80799723e-17  4.81247821e-01  6.00177087e-01  1.39065829e-06
 -1.06844880e-05  1.07475231e-04 -1.77906883e-03  9.17995023e-03
 -8.89239707e-02]
l = 0  e_0 = -7.8067762
l = 0  e_1 = -0.55730646
l = 0  e_2 = 0.0139339566
l = 0  e_3 = 0.0861514975
l = 0  e_4 = 0.355574857
l = 0  e_5 = 1.31517839
l = 0  e_6 = 5.165288
l = 0  e_7 = 18.5846402
l = 0  e_8 = 63.5918025
l = 0  e_9 = 266.484343
l = 1  e_0 = -0.0384845826
l = 1  e_1 = 0.013801843
l = 1  e_2 = 0.0719814163
l = 1  e_3 = 0.293756638
l = 1  e_4 = 0.994481854
l = 1  e_5 = 3.16216108
l = 1  e_6 = 9.87657698
l = 1  e_7 = 32.5490426
l = 1  e_8 = 111.836935
l = 2  e_0 = 0.0480623714
l = 2  e_1 = 0.17081642
l = 2  e_2 = 0.500665794
l = 2  e_3 = 1.37737702
l = 2  e_4 = 3.87491843
l = 2  e_5 = 12.6504797
l = 2  e_6 = 55.4758058
l = 3  e_0 = 0.170593777
l = 3  e_1 = 0.535833579
l = 3  e_2 = 1.46568254
l = 3  e_3 = 4.05220972
l = 3  e_4 = 15.435084
l = 4  e_0 = 0.560529901
l = 4  e_1 = 1.57534429
l = 4  e_2 = 4.02147994
l = 0  occ = 2 + 0
l = 1  occ = 0 + 0.3333
l = 2  occ = 0 + 0
l = 3  occ = 0 + 0
E1 = -32.002470079561824  E_coul = 7.617910087112913
cycle= 11 E= -24.3845599924489  delta_E= 4.97e-14  |g|=    0  |ddm|= 1.6e-09
    CPU time for cycle= 11      0.16 sec, wall time      0.04 sec
diis-norm(errvec)=2.00722e-09
Linear dependence found in DIIS error vectors.
diis-c [-3.00641323e-17  3.04227195e-01  3.71637890e-01  3.72076773e-01
 -1.59073323e-06  3.23551939e-05 -7.77104077e-04  4.83837233e-03
 -5.20338915e-02]
l = 0  e_0 = -7.8067762
l = 0  e_1 = -0.557306462
l = 0  e_2 = 0.0139339566
l = 0  e_3 = 0.0861514973
l = 0  e_4 = 0.355574857
l = 0  e_5 = 1.31517839
l = 0  e_6 = 5.165288
l = 0  e_7 = 18.5846402
l = 0  e_8 = 63.5918025
l = 0  e_9 = 266.484343
l = 1  e_0 = -0.0384845834
l = 1  e_1 = 0.013801843
l = 1  e_2 = 0.0719814163
l = 1  e_3 = 0.293756638
l = 1  e_4 = 0.994481853
l = 1  e_5 = 3.16216108
l = 1  e_6 = 9.87657698
l = 1  e_7 = 32.5490426
l = 1  e_8 = 111.836935
l = 2  e_0 = 0.0480623714
l = 2  e_1 = 0.17081642
l = 2  e_2 = 0.500665793
l = 2  e_3 = 1.37737702
l = 2  e_4 = 3.87491843
l = 2  e_5 = 12.6504797
l = 2  e_6 = 55.4758058
l = 3  e_0 = 0.170593777
l = 3  e_1 = 0.535833579
l = 3  e_2 = 1.46568254
l = 3  e_3 = 4.05220972
l = 3  e_4 = 15.435084
l = 4  e_0 = 0.5605299
l = 4  e_1 = 1.57534429
l = 4  e_2 = 4.02147994
l = 0  occ = 2 + 0
l = 1  occ = 0 + 0.3333
l = 2  occ = 0 + 0
l = 3  occ = 0 + 0
E1 = -32.0024700833385  E_coul = 7.617910090889612
cycle= 12 E= -24.3845599924489  delta_E= 2.49e-14  |g|=    0  |ddm|= 5.43e-09
    CPU time for cycle= 12      0.17 sec, wall time      0.04 sec
diis-norm(errvec)=3.94609e-10
Linear dependence found in DIIS error vectors.
diis-c [-5.71777656e-17  2.24071324e-01  2.70070220e-01  2.70506478e-01
  2.70424781e-01  1.21788287e-05 -4.62213815e-04  3.12017434e-03
 -3.77429422e-02]
l = 0  e_0 = -7.8067762
l = 0  e_1 = -0.557306461
l = 0  e_2 = 0.0139339566
l = 0  e_3 = 0.0861514974
l = 0  e_4 = 0.355574857
l = 0  e_5 = 1.31517839
l = 0  e_6 = 5.165288
l = 0  e_7 = 18.5846402
l = 0  e_8 = 63.5918025
l = 0  e_9 = 266.484343
l = 1  e_0 = -0.0384845832
l = 1  e_1 = 0.013801843
l = 1  e_2 = 0.0719814163
l = 1  e_3 = 0.293756638
l = 1  e_4 = 0.994481853
l = 1  e_5 = 3.16216108
l = 1  e_6 = 9.87657698
l = 1  e_7 = 32.5490426
l = 1  e_8 = 111.836935
l = 2  e_0 = 0.0480623714
l = 2  e_1 = 0.17081642
l = 2  e_2 = 0.500665794
l = 2  e_3 = 1.37737702
l = 2  e_4 = 3.87491843
l = 2  e_5 = 12.6504797
l = 2  e_6 = 55.4758058
l = 3  e_0 = 0.170593777
l = 3  e_1 = 0.535833579
l = 3  e_2 = 1.46568254
l = 3  e_3 = 4.05220972
l = 3  e_4 = 15.435084
l = 4  e_0 = 0.560529901
l = 4  e_1 = 1.57534429
l = 4  e_2 = 4.02147994
l = 0  occ = 2 + 0
l = 1  occ = 0 + 0.3333
l = 2  occ = 0 + 0
l = 3  occ = 0 + 0
E1 = -32.00247008135184  E_coul = 7.617910088902906
cycle= 13 E= -24.3845599924489  delta_E= -4.26e-14  |g|=    0  |ddm|= 1.43e-09
    CPU time for cycle= 13      0.17 sec, wall time      0.04 sec
diis-norm(errvec)=7.52169e-10
Linear dependence found in DIIS error vectors.
diis-c [-8.51494599e-17  1.80061673e-01  2.10860314e-01  2.11128254e-01
  2.11188252e-01  2.11264146e-01 -1.53926815e-04  1.67476110e-03
 -2.60234728e-02]
l = 0  e_0 = -7.8067762
l = 0  e_1 = -0.557306462
l = 0  e_2 = 0.0139339564
l = 0  e_3 = 0.0861514971
l = 0  e_4 = 0.355574856
l = 0  e_5 = 1.31517839
l = 0  e_6 = 5.165288
l = 0  e_7 = 18.5846402
l = 0  e_8 = 63.5918025
l = 0  e_9 = 266.484343
l = 1  e_0 = -0.038484584
l = 1  e_1 = 0.013801843
l = 1  e_2 = 0.0719814161
l = 1  e_3 = 0.293756637
l = 1  e_4 = 0.994481852
l = 1  e_5 = 3.16216108
l = 1  e_6 = 9.87657698
l = 1  e_7 = 32.5490426
l = 1  e_8 = 111.836935
l = 2  e_0 = 0.0480623713
l = 2  e_1 = 0.17081642
l = 2  e_2 = 0.500665793
l = 2  e_3 = 1.37737702
l = 2  e_4 = 3.87491843
l = 2  e_5 = 12.6504797
l = 2  e_6 = 55.4758058
l = 3  e_0 = 0.170593777
l = 3  e_1 = 0.535833578
l = 3  e_2 = 1.46568254
l = 3  e_3 = 4.05220972
l = 3  e_4 = 15.435084
l = 4  e_0 = 0.5605299
l = 4  e_1 = 1.57534429
l = 4  e_2 = 4.02147994
l = 0  occ = 2 + 0
l = 1  occ = 0 + 0.3333
l = 2  occ = 0 + 0
l = 3  occ = 0 + 0
E1 = -32.00247008500713  E_coul = 7.617910092558193
cycle= 14 E= -24.3845599924489  delta_E= -7.11e-15  |g|=    0  |ddm|= 4.78e-09
    CPU time for cycle= 14      0.17 sec, wall time      0.04 sec
diis-norm(errvec)=8.78051e-10
Linear dependence found in DIIS error vectors.
diis-c [-6.08093972e-17  1.48487887e-01  1.74145334e-01  1.74382939e-01
  1.74404076e-01  1.74471451e-01  1.74471233e-01  1.00122809e-03
 -2.13641488e-02]
l = 0  e_0 = -7.8067762
l = 0  e_1 = -0.557306464
l = 0  e_2 = 0.0139339563
l = 0  e_3 = 0.0861514968
l = 0  e_4 = 0.355574855
l = 0  e_5 = 1.31517839
l = 0  e_6 = 5.16528799
l = 0  e_7 = 18.5846402
l = 0  e_8 = 63.5918025
l = 0  e_9 = 266.484343
l = 1  e_0 = -0.0384845848
l = 1  e_1 = 0.013801843
l = 1  e_2 = 0.0719814159
l = 1  e_3 = 0.293756636
l = 1  e_4 = 0.994481851
l = 1  e_5 = 3.16216108
l = 1  e_6 = 9.87657697
l = 1  e_7 = 32.5490426
l = 1  e_8 = 111.836935
l = 2  e_0 = 0.0480623712
l = 2  e_1 = 0.17081642
l = 2  e_2 = 0.500665792
l = 2  e_3 = 1.37737702
l = 2  e_4 = 3.87491843
l = 2  e_5 = 12.6504797
l = 2  e_6 = 55.4758058
l = 3  e_0 = 0.170593777
l = 3  e_1 = 0.535833578
l = 3  e_2 = 1.46568254
l = 3  e_3 = 4.05220972
l = 3  e_4 = 15.435084
l = 4  e_0 = 0.5605299
l = 4  e_1 = 1.57534429
l = 4  e_2 = 4.02147994
l = 0  occ = 2 + 0
l = 1  occ = 0 + 0.3333
l = 2  occ = 0 + 0
l = 3  occ = 0 + 0
E1 = -32.00247008853446  E_coul = 7.617910096085519
cycle= 15 E= -24.3845599924489  delta_E=    0  |g|=    0  |ddm|= 2.63e-09
    CPU time for cycle= 15      0.17 sec, wall time      0.04 sec
diis-norm(errvec)=2.38534e-09
Linear dependence found in DIIS error vectors.
diis-c [-7.85967029e-17  1.41301381e-01  1.43453193e-01  1.43616171e-01
  1.43481130e-01  1.43536843e-01  1.43443076e-01  1.43335637e-01
 -2.16743133e-03]
l = 0  e_0 = -7.80677619
l = 0  e_1 = -0.557306459
l = 0  e_2 = 0.0139339569
l = 0  e_3 = 0.086151498
l = 0  e_4 = 0.355574858
l = 0  e_5 = 1.3151784
l = 0  e_6 = 5.165288
l = 0  e_7 = 18.5846402
l = 0  e_8 = 63.5918025
l = 0  e_9 = 266.484343
l = 1  e_0 = -0.0384845818
l = 1  e_1 = 0.0138018431
l = 1  e_2 = 0.0719814168
l = 1  e_3 = 0.293756639
l = 1  e_4 = 0.994481855
l = 1  e_5 = 3.16216108
l = 1  e_6 = 9.87657698
l = 1  e_7 = 32.5490427
l = 1  e_8 = 111.836935
l = 2  e_0 = 0.0480623715
l = 2  e_1 = 0.170816421
l = 2  e_2 = 0.500665795
l = 2  e_3 = 1.37737702
l = 2  e_4 = 3.87491843
l = 2  e_5 = 12.6504797
l = 2  e_6 = 55.4758058
l = 3  e_0 = 0.170593777
l = 3  e_1 = 0.53583358
l = 3  e_2 = 1.46568254
l = 3  e_3 = 4.05220972
l = 3  e_4 = 15.435084
l = 4  e_0 = 0.560529901
l = 4  e_1 = 1.57534429
l = 4  e_2 = 4.02147994
l = 0  occ = 2 + 0
l = 1  occ = 0 + 0.3333
l = 2  occ = 0 + 0
l = 3  occ = 0 + 0
E1 = -32.00247007569403  E_coul = 7.617910083245112
cycle= 16 E= -24.3845599924489  delta_E= 2.49e-14  |g|=    0  |ddm|= 1.14e-08
    CPU time for cycle= 16      0.17 sec, wall time      0.04 sec
diis-norm(errvec)=3.83735e-09
Linear dependence found in DIIS error vectors.
diis-c [-4.1157153e-16  1.2500000e-01  1.2500000e-01  1.2500000e-01
  1.2500000e-01  1.2500000e-01  1.2500000e-01  1.2500000e-01
  1.2500000e-01]
l = 0  e_0 = -7.80677619
l = 0  e_1 = -0.557306457
l = 0  e_2 = 0.013933957
l = 0  e_3 = 0.0861514982
l = 0  e_4 = 0.355574859
l = 0  e_5 = 1.3151784
l = 0  e_6 = 5.165288
l = 0  e_7 = 18.5846402
l = 0  e_8 = 63.5918025
l = 0  e_9 = 266.484343
l = 1  e_0 = -0.0384845807
l = 1  e_1 = 0.0138018431
l = 1  e_2 = 0.0719814171
l = 1  e_3 = 0.29375664
l = 1  e_4 = 0.994481857
l = 1  e_5 = 3.16216108
l = 1  e_6 = 9.87657698
l = 1  e_7 = 32.5490427
l = 1  e_8 = 111.836935
l = 2  e_0 = 0.0480623716
l = 2  e_1 = 0.170816421
l = 2  e_2 = 0.500665796
l = 2  e_3 = 1.37737703
l = 2  e_4 = 3.87491844
l = 2  e_5 = 12.6504797
l = 2  e_6 = 55.4758058
l = 3  e_0 = 0.170593778
l = 3  e_1 = 0.53583358
l = 3  e_2 = 1.46568255
l = 3  e_3 = 4.05220973
l = 3  e_4 = 15.435084
l = 4  e_0 = 0.560529902
l = 4  e_1 = 1.57534429
l = 4  e_2 = 4.02147994
l = 0  occ = 2 + 0
l = 1  occ = 0 + 0.3333
l = 2  occ = 0 + 0
l = 3  occ = 0 + 0
E1 = -32.00247006971671  E_coul = 7.6179100772677675
cycle= 17 E= -24.3845599924489  delta_E= -2.84e-14  |g|=    0  |ddm|= 1.42e-09
    CPU time for cycle= 17      0.17 sec, wall time      0.04 sec
diis-norm(errvec)=5.40343e-09
Linear dependence found in DIIS error vectors.
diis-c [-2.89052492e-16  1.25000000e-01  1.25000000e-01  1.25000000e-01
  1.25000000e-01  1.25000000e-01  1.25000000e-01  1.25000000e-01
  1.25000000e-01]
l = 0  e_0 = -7.8067762
l = 0  e_1 = -0.557306462
l = 0  e_2 = 0.0139339565
l = 0  e_3 = 0.0861514972
l = 0  e_4 = 0.355574856
l = 0  e_5 = 1.31517839
l = 0  e_6 = 5.165288
l = 0  e_7 = 18.5846402
l = 0  e_8 = 63.5918025
l = 0  e_9 = 266.484343
l = 1  e_0 = -0.0384845838
l = 1  e_1 = 0.013801843
l = 1  e_2 = 0.0719814162
l = 1  e_3 = 0.293756637
l = 1  e_4 = 0.994481853
l = 1  e_5 = 3.16216108
l = 1  e_6 = 9.87657698
l = 1  e_7 = 32.5490426
l = 1  e_8 = 111.836935
l = 2  e_0 = 0.0480623713
l = 2  e_1 = 0.17081642
l = 2  e_2 = 0.500665793
l = 2  e_3 = 1.37737702
l = 2  e_4 = 3.87491843
l = 2  e_5 = 12.6504797
l = 2  e_6 = 55.4758058
l = 3  e_0 = 0.170593777
l = 3  e_1 = 0.535833578
l = 3  e_2 = 1.46568254
l = 3  e_3 = 4.05220972
l = 3  e_4 = 15.435084
l = 4  e_0 = 0.5605299
l = 4  e_1 = 1.57534429
l = 4  e_2 = 4.02147994
l = 0  occ = 2 + 0
l = 1  occ = 0 + 0.3333
l = 2  occ = 0 + 0
l = 3  occ = 0 + 0
E1 = -32.002470084073245  E_coul = 7.617910091624332
cycle= 18 E= -24.3845599924489  delta_E= 2.84e-14  |g|=    0  |ddm|= 9.17e-09
    CPU time for cycle= 18      0.17 sec, wall time      0.04 sec
diis-norm(errvec)=2.65951e-10
Linear dependence found in DIIS error vectors.
diis-c [-2.89052492e-16  1.25000000e-01  1.25000000e-01  1.25000000e-01
  1.25000000e-01  1.25000000e-01  1.25000000e-01  1.25000000e-01
  1.25000000e-01]
l = 0  e_0 = -7.8067762
l = 0  e_1 = -0.557306462
l = 0  e_2 = 0.0139339565
l = 0  e_3 = 0.0861514972
l = 0  e_4 = 0.355574856
l = 0  e_5 = 1.31517839
l = 0  e_6 = 5.165288
l = 0  e_7 = 18.5846402
l = 0  e_8 = 63.5918025
l = 0  e_9 = 266.484343
l = 1  e_0 = -0.0384845838
l = 1  e_1 = 0.013801843
l = 1  e_2 = 0.0719814162
l = 1  e_3 = 0.293756637
l = 1  e_4 = 0.994481853
l = 1  e_5 = 3.16216108
l = 1  e_6 = 9.87657698
l = 1  e_7 = 32.5490426
l = 1  e_8 = 111.836935
l = 2  e_0 = 0.0480623713
l = 2  e_1 = 0.17081642
l = 2  e_2 = 0.500665793
l = 2  e_3 = 1.37737702
l = 2  e_4 = 3.87491843
l = 2  e_5 = 12.6504797
l = 2  e_6 = 55.4758058
l = 3  e_0 = 0.170593777
l = 3  e_1 = 0.535833578
l = 3  e_2 = 1.46568254
l = 3  e_3 = 4.05220972
l = 3  e_4 = 15.435084
l = 4  e_0 = 0.5605299
l = 4  e_1 = 1.57534429
l = 4  e_2 = 4.02147994
l = 0  occ = 2 + 0
l = 1  occ = 0 + 0.3333
l = 2  occ = 0 + 0
l = 3  occ = 0 + 0
E1 = -32.002470084215034  E_coul = 7.617910091766114
cycle= 19 E= -24.3845599924489  delta_E= -7.11e-15  |g|=    0  |ddm|= 1.25e-10
    CPU time for cycle= 19      0.17 sec, wall time      0.04 sec
diis-norm(errvec)=3.047e-10
Linear dependence found in DIIS error vectors.
diis-c [-2.89052492e-16  1.25000000e-01  1.25000000e-01  1.25000000e-01
  1.25000000e-01  1.25000000e-01  1.25000000e-01  1.25000000e-01
  1.25000000e-01]
l = 0  e_0 = -7.8067762
l = 0  e_1 = -0.557306462
l = 0  e_2 = 0.0139339565
l = 0  e_3 = 0.0861514972
l = 0  e_4 = 0.355574856
l = 0  e_5 = 1.31517839
l = 0  e_6 = 5.165288
l = 0  e_7 = 18.5846402
l = 0  e_8 = 63.5918025
l = 0  e_9 = 266.484343
l = 1  e_0 = -0.0384845837
l = 1  e_1 = 0.013801843
l = 1  e_2 = 0.0719814162
l = 1  e_3 = 0.293756637
l = 1  e_4 = 0.994481853
l = 1  e_5 = 3.16216108
l = 1  e_6 = 9.87657698
l = 1  e_7 = 32.5490426
l = 1  e_8 = 111.836935
l = 2  e_0 = 0.0480623713
l = 2  e_1 = 0.17081642
l = 2  e_2 = 0.500665793
l = 2  e_3 = 1.37737702
l = 2  e_4 = 3.87491843
l = 2  e_5 = 12.6504797
l = 2  e_6 = 55.4758058
l = 3  e_0 = 0.170593777
l = 3  e_1 = 0.535833578
l = 3  e_2 = 1.46568254
l = 3  e_3 = 4.05220972
l = 3  e_4 = 15.435084
l = 4  e_0 = 0.5605299
l = 4  e_1 = 1.57534429
l = 4  e_2 = 4.02147994
l = 0  occ = 2 + 0
l = 1  occ = 0 + 0.3333
l = 2  occ = 0 + 0
l = 3  occ = 0 + 0
E1 = -32.00247008389507  E_coul = 7.617910091446191
cycle= 20 E= -24.3845599924489  delta_E= 4.26e-14  |g|=    0  |ddm|= 8.11e-11
    CPU time for cycle= 20      0.17 sec, wall time      0.04 sec
l = 0  e_0 = -7.8067762
l = 0  e_1 = -0.557306462
l = 0  e_2 = 0.0139339565
l = 0  e_3 = 0.0861514973
l = 0  e_4 = 0.355574857
l = 0  e_5 = 1.31517839
l = 0  e_6 = 5.165288
l = 0  e_7 = 18.5846402
l = 0  e_8 = 63.5918025
l = 0  e_9 = 266.484343
l = 1  e_0 = -0.0384845835
l = 1  e_1 = 0.013801843
l = 1  e_2 = 0.0719814162
l = 1  e_3 = 0.293756637
l = 1  e_4 = 0.994481853
l = 1  e_5 = 3.16216108
l = 1  e_6 = 9.87657698
l = 1  e_7 = 32.5490426
l = 1  e_8 = 111.836935
l = 2  e_0 = 0.0480623713
l = 2  e_1 = 0.17081642
l = 2  e_2 = 0.500665793
l = 2  e_3 = 1.37737702
l = 2  e_4 = 3.87491843
l = 2  e_5 = 12.6504797
l = 2  e_6 = 55.4758058
l = 3  e_0 = 0.170593777
l = 3  e_1 = 0.535833578
l = 3  e_2 = 1.46568254
l = 3  e_3 = 4.05220972
l = 3  e_4 = 15.435084
l = 4  e_0 = 0.5605299
l = 4  e_1 = 1.57534429
l = 4  e_2 = 4.02147994
l = 0  occ = 2 + 0
l = 1  occ = 0 + 0.3333
l = 2  occ = 0 + 0
l = 3  occ = 0 + 0
E1 = -32.00247008250054  E_coul = 7.617910090051603
Extra cycle  E= -24.3845599924489  delta_E= -5.68e-14  |g|=    0  |ddm|= 8.11e-11
    CPU time for scf_cycle      5.16 sec, wall time      1.40 sec
    CPU time for SCF      5.16 sec, wall time      1.40 sec
Atomic HF for atom  B  converged. SCF energy = -24.3845599924489

Atom B, E = -24.3845599924
Nelec from initial guess = (np.float64(2.5), np.float64(2.5))
E1 = -32.00247008250054  Ecoul = 7.617910090051607
init E= -24.3845599924489
    CPU time for initialize scf      6.95 sec, wall time      1.89 sec
alpha HOMO (B3u) = -0.0384845836516031  LUMO (B1u) = -0.0384845836516028
alpha irrep_nelec = [2, 0, 0, 0, 0, 0, 0, 1]
beta  irrep_nelec = [2, 0, 0, 0, 0, 0, 0, 0]
alpha-Ag nocc = 2  HOMO = -0.557306461798484  LUMO = 0.0139339564646105
   mo_energy = [-7.80677620e+00 -5.57306462e-01  1.39339565e-02  4.80623713e-02
  4.80623713e-02  8.61514972e-02  1.70816420e-01  1.70816420e-01
  3.55574856e-01  5.00665793e-01  5.00665793e-01  5.60529900e-01
  5.60529900e-01  5.60529900e-01  1.31517839e+00  1.37737702e+00
  1.37737702e+00  1.57534429e+00  1.57534429e+00  1.57534429e+00
  3.87491843e+00  3.87491843e+00  4.02147994e+00  4.02147994e+00
  4.02147994e+00  5.16528800e+00  1.26504797e+01  1.26504797e+01
  1.85846402e+01  5.54758058e+01  5.54758058e+01  6.35918025e+01
  2.66484343e+02]
alpha-B1g nocc = 0
   mo_energy = [4.80623713e-02 1.70816420e-01 5.00665793e-01 5.60529900e-01
 5.60529900e-01 1.37737702e+00 1.57534429e+00 1.57534429e+00
 3.87491843e+00 4.02147994e+00 4.02147994e+00 1.26504797e+01
 5.54758058e+01]
alpha-B2g nocc = 0
   mo_energy = [4.80623713e-02 1.70816420e-01 5.00665793e-01 5.60529900e-01
 5.60529900e-01 1.37737702e+00 1.57534429e+00 1.57534429e+00
 3.87491843e+00 4.02147994e+00 4.02147994e+00 1.26504797e+01
 5.54758058e+01]
alpha-B3g nocc = 0
   mo_energy = [4.80623713e-02 1.70816420e-01 5.00665793e-01 5.60529900e-01
 5.60529900e-01 1.37737702e+00 1.57534429e+00 1.57534429e+00
 3.87491843e+00 4.02147994e+00 4.02147994e+00 1.26504797e+01
 5.54758058e+01]
alpha-Au nocc = 0
   mo_energy = [ 0.17059378  0.53583358  1.46568254  4.05220972 15.43508396]
alpha-B1u nocc = 0
   mo_energy = [-3.84845837e-02  1.38018430e-02  7.19814162e-02  1.70593777e-01
  1.70593777e-01  2.93756637e-01  5.35833578e-01  5.35833578e-01
  9.94481853e-01  1.46568254e+00  1.46568254e+00  3.16216108e+00
  4.05220972e+00  4.05220972e+00  9.87657698e+00  1.54350840e+01
  1.54350840e+01  3.25490426e+01  1.11836935e+02]
alpha-B2u nocc = 0
   mo_energy = [-3.84845837e-02  1.38018430e-02  7.19814162e-02  1.70593777e-01
  1.70593777e-01  2.93756637e-01  5.35833578e-01  5.35833578e-01
  9.94481853e-01  1.46568254e+00  1.46568254e+00  3.16216108e+00
  4.05220972e+00  4.05220972e+00  9.87657698e+00  1.54350840e+01
  1.54350840e+01  3.25490426e+01  1.11836935e+02]
alpha-B3u nocc = 1  HOMO = -0.0384845836516031  LUMO = 0.013801843007128

WARN: alpha-B3u HOMO -0.0384845836516031 > system LUMO -0.0384845836516028

   mo_energy = [-3.84845837e-02  1.38018430e-02  7.19814162e-02  1.70593777e-01
  1.70593777e-01  2.93756637e-01  5.35833578e-01  5.35833578e-01
  9.94481853e-01  1.46568254e+00  1.46568254e+00  3.16216108e+00
  4.05220972e+00  4.05220972e+00  9.87657698e+00  1.54350840e+01
  1.54350840e+01  3.25490426e+01  1.11836935e+02]
beta-Ag nocc = 2  HOMO = -0.557306461798484  LUMO = 0.0139339564646105
   mo_energy = [-7.80677620e+00 -5.57306462e-01  1.39339565e-02  4.80623713e-02
  4.80623713e-02  8.61514972e-02  1.70816420e-01  1.70816420e-01
  3.55574856e-01  5.00665793e-01  5.00665793e-01  5.60529900e-01
  5.60529900e-01  5.60529900e-01  1.31517839e+00  1.37737702e+00
  1.37737702e+00  1.57534429e+00  1.57534429e+00  1.57534429e+00
  3.87491843e+00  3.87491843e+00  4.02147994e+00  4.02147994e+00
  4.02147994e+00  5.16528800e+00  1.26504797e+01  1.26504797e+01
  1.85846402e+01  5.54758058e+01  5.54758058e+01  6.35918025e+01
  2.66484343e+02]
beta-B1g nocc = 0
   mo_energy = [4.80623713e-02 1.70816420e-01 5.00665793e-01 5.60529900e-01
 5.60529900e-01 1.37737702e+00 1.57534429e+00 1.57534429e+00
 3.87491843e+00 4.02147994e+00 4.02147994e+00 1.26504797e+01
 5.54758058e+01]
beta-B2g nocc = 0
   mo_energy = [4.80623713e-02 1.70816420e-01 5.00665793e-01 5.60529900e-01
 5.60529900e-01 1.37737702e+00 1.57534429e+00 1.57534429e+00
 3.87491843e+00 4.02147994e+00 4.02147994e+00 1.26504797e+01
 5.54758058e+01]
beta-B3g nocc = 0
   mo_energy = [4.80623713e-02 1.70816420e-01 5.00665793e-01 5.60529900e-01
 5.60529900e-01 1.37737702e+00 1.57534429e+00 1.57534429e+00
 3.87491843e+00 4.02147994e+00 4.02147994e+00 1.26504797e+01
 5.54758058e+01]
beta-Au nocc = 0
   mo_energy = [ 0.17059378  0.53583358  1.46568254  4.05220972 15.43508396]
beta-B1u nocc = 0
   mo_energy = [-3.84845837e-02  1.38018430e-02  7.19814162e-02  1.70593777e-01
  1.70593777e-01  2.93756637e-01  5.35833578e-01  5.35833578e-01
  9.94481853e-01  1.46568254e+00  1.46568254e+00  3.16216108e+00
  4.05220972e+00  4.05220972e+00  9.87657698e+00  1.54350840e+01
  1.54350840e+01  3.25490426e+01  1.11836935e+02]
beta-B2u nocc = 0
   mo_energy = [-3.84845837e-02  1.38018430e-02  7.19814162e-02  1.70593777e-01
  1.70593777e-01  2.93756637e-01  5.35833578e-01  5.35833578e-01
  9.94481853e-01  1.46568254e+00  1.46568254e+00  3.16216108e+00
  4.05220972e+00  4.05220972e+00  9.87657698e+00  1.54350840e+01
  1.54350840e+01  3.25490426e+01  1.11836935e+02]
beta-B3u nocc = 0
   mo_energy = [-3.84845837e-02  1.38018430e-02  7.19814162e-02  1.70593777e-01
  1.70593777e-01  2.93756637e-01  5.35833578e-01  5.35833578e-01
  9.94481853e-01  1.46568254e+00  1.46568254e+00  3.16216108e+00
  4.05220972e+00  4.05220972e+00  9.87657698e+00  1.54350840e+01
  1.54350840e+01  3.25490426e+01  1.11836935e+02]
multiplicity <S^2> = 0.75  2S+1 = 2
E1 = -32.002470083271064  Ecoul = 7.500734982577955
cycle= 1 E= -24.5017351006931  delta_E= -0.117  |g|= 0.0875  |ddm|= 0.406
    CPU time for cycle= 1      0.34 sec, wall time      0.09 sec
diis-norm(errvec)=0.123687
diis-c [-0.0152984  1.       ]
alpha HOMO (B3u) = -0.287302515984751  LUMO (B1u) = -0.00727182829751786
alpha irrep_nelec = [2, 0, 0, 0, 0, 0, 0, 1]
beta  irrep_nelec = [2, 0, 0, 0, 0, 0, 0, 0]
alpha-Ag nocc = 2  HOMO = -0.591379298957549  LUMO = 0.0117726982528334
   mo_energy = [-7.81066398e+00 -5.91379299e-01  1.17726983e-02  4.68162454e-02
  4.77033814e-02  8.19650904e-02  1.65083260e-01  1.67340083e-01
  3.49335179e-01  4.88107065e-01  4.93549132e-01  5.51713494e-01
  5.60725269e-01  5.63760243e-01  1.30787750e+00  1.36593132e+00
  1.36850004e+00  1.55929708e+00  1.57531848e+00  1.58069466e+00
  3.86165272e+00  3.87408918e+00  4.00066484e+00  4.02167600e+00
  4.02871510e+00  5.16063663e+00  1.26403756e+01  1.26541457e+01
  1.85827883e+01  5.54715149e+01  5.54786069e+01  6.35912584e+01
  2.66484192e+02]
alpha-B1g nocc = 0
   mo_energy = [4.75460248e-02 1.65505166e-01 4.89054380e-01 5.56947515e-01
 5.63000416e-01 1.36745365e+00 1.56862268e+00 1.57934901e+00
 3.87093354e+00 4.01290235e+00 4.02695361e+00 1.26506942e+01
 5.54768346e+01]
alpha-B2g nocc = 0
   mo_energy = [4.75460248e-02 1.65505166e-01 4.89054380e-01 5.56947515e-01
 5.63000416e-01 1.36745365e+00 1.56862268e+00 1.57934901e+00
 3.87093354e+00 4.01290235e+00 4.02695361e+00 1.26506942e+01
 5.54768346e+01]
alpha-B3g nocc = 0
   mo_energy = [4.68162454e-02 1.67340083e-01 4.93549132e-01 5.51713494e-01
 5.60725269e-01 1.36593132e+00 1.55929708e+00 1.57531848e+00
 3.86165272e+00 4.00066484e+00 4.02167600e+00 1.26403756e+01
 5.54715149e+01]
alpha-Au nocc = 0
   mo_energy = [ 0.1694882   0.53205774  1.4593532   4.04609222 15.43204698]
alpha-B1u nocc = 0
   mo_energy = [-7.27182830e-03  1.41426053e-02  7.22004072e-02  1.66865079e-01
  1.71099369e-01  2.90655384e-01  5.26772607e-01  5.35286014e-01
  9.87143264e-01  1.45057470e+00  1.46469208e+00  3.15296212e+00
  4.03432662e+00  4.05320620e+00  9.86893308e+00  1.54219829e+01
  1.54380913e+01  3.25446678e+01  1.11835066e+02]
alpha-B2u nocc = 0
   mo_energy = [-7.27182830e-03  1.41426053e-02  7.22004072e-02  1.66865079e-01
  1.71099369e-01  2.90655384e-01  5.26772607e-01  5.35286014e-01
  9.87143264e-01  1.45057470e+00  1.46469208e+00  3.15296212e+00
  4.03432662e+00  4.05320620e+00  9.86893308e+00  1.54219829e+01
  1.54380913e+01  3.25446678e+01  1.11835066e+02]
alpha-B3u nocc = 1  HOMO = -0.287302515984751  LUMO = 0.0126330071830911
   mo_energy = [-2.87302516e-01  1.26330072e-02  6.19416228e-02  1.69488195e-01
  1.71637639e-01  2.75099837e-01  5.32057743e-01  5.36366947e-01
  9.81419633e-01  1.45935320e+00  1.46648410e+00  3.16144167e+00
  4.04609222e+00  4.05558757e+00  9.88244961e+00  1.54320470e+01
  1.54401070e+01  3.25544563e+01  1.11839811e+02]
beta-Ag nocc = 2  HOMO = -0.524690419662016  LUMO = 0.0155619656856106
   mo_energy = [-7.80290866e+00 -5.24690420e-01  1.55619657e-02  4.70987823e-02
  5.05909844e-02  8.98029409e-02  1.69117183e-01  1.81840600e-01
  3.61209095e-01  4.97686267e-01  5.23785764e-01  5.52378820e-01
  5.65411948e-01  5.70123278e-01  1.32188235e+00  1.37080179e+00
  1.40517850e+00  1.56064821e+00  1.58432336e+00  1.59237451e+00
  3.86535850e+00  3.89887720e+00  4.00235662e+00  4.03281819e+00
  4.04307038e+00  5.16993511e+00  1.26421810e+01  1.26652620e+01
  1.85865023e+01  5.54719485e+01  5.54811510e+01  6.35923510e+01
  2.66484493e+02]
beta-B1g nocc = 0
   mo_energy = [4.95978958e-02 1.78193825e-01 5.16660505e-01 5.59869926e-01
 5.68901410e-01 1.39614880e+00 1.57437985e+00 1.59035264e+00
 3.89034906e+00 4.02007364e+00 4.04050247e+00 1.26594707e+01
 5.54788513e+01]
beta-B2g nocc = 0
   mo_energy = [4.95978958e-02 1.78193825e-01 5.16660505e-01 5.59869926e-01
 5.68901410e-01 1.39614880e+00 1.57437985e+00 1.59035264e+00
 3.89034906e+00 4.02007364e+00 4.04050247e+00 1.26594707e+01
 5.54788513e+01]
beta-B3g nocc = 0
   mo_energy = [4.70987823e-02 1.69117183e-01 4.97686267e-01 5.52378820e-01
 5.65411948e-01 1.37080179e+00 1.56064821e+00 1.58432336e+00
 3.86535850e+00 4.00235662e+00 4.03281819e+00 1.26421810e+01
 5.54719485e+01]
beta-Au nocc = 0
   mo_energy = [ 0.17169176  0.53960329  1.47202122  4.05833152 15.43812103]
beta-B1u nocc = 0
   mo_energy = [4.09727072e-03 1.63465418e-02 7.59878278e-02 1.67296646e-01
 1.74413547e-01 2.96626045e-01 5.28296291e-01 5.46648039e-01
 9.93855850e-01 1.45320959e+00 1.48363568e+00 3.15819078e+00
 4.03695141e+00 4.07133374e+00 9.87181837e+00 1.54233005e+01
 1.54470277e+01 3.25457496e+01 1.11835358e+02]
beta-B2u nocc = 0
   mo_energy = [4.09727072e-03 1.63465418e-02 7.59878278e-02 1.67296646e-01
 1.74413547e-01 2.96626045e-01 5.28296291e-01 5.46648039e-01
 9.93855850e-01 1.45320959e+00 1.48363568e+00 3.15819078e+00
 4.03695141e+00 4.07133374e+00 9.87181837e+00 1.54233005e+01
 1.54470277e+01 3.25457496e+01 1.11835358e+02]
beta-B3u nocc = 0
   mo_energy = [1.26347120e-02 3.33350340e-02 9.01341242e-02 1.71691756e-01
 1.75347739e-01 3.18492667e-01 5.39603290e-01 5.49059137e-01
 1.02371060e+00 1.47202122e+00 1.48758019e+00 3.18889112e+00
 4.05833152e+00 4.07570247e+00 9.89553083e+00 1.54381210e+01
 1.54499991e+01 3.25589722e+01 1.11840950e+02]
multiplicity <S^2> = 0.75253341  2S+1 = 2.0025318
E1 = -32.27442768913791  Ecoul = 7.749321591874373
cycle= 2 E= -24.5251060972635  delta_E= -0.0234  |g|= 0.0498  |ddm|= 0.261
    CPU time for cycle= 2      0.37 sec, wall time      0.09 sec
diis-norm(errvec)=0.0704404
diis-c [-0.00373288 -0.48362975  1.48362975]
alpha HOMO (B3u) = -0.308014136314528  LUMO (B1u) = 0.0112113223158913
alpha irrep_nelec = [2, 0, 0, 0, 0, 0, 0, 1]
beta  irrep_nelec = [2, 0, 0, 0, 0, 0, 0, 0]
alpha-Ag nocc = 2  HOMO = -0.541669166094592  LUMO = 0.0167110583979625
   mo_energy = [-7.68795914e+00 -5.41669166e-01  1.67110584e-02  4.84997980e-02
  5.01278746e-02  9.32530916e-02  1.76927063e-01  1.78203644e-01
  3.74262814e-01  5.14006525e-01  5.23048847e-01  5.63785191e-01
  5.71938426e-01  5.74682072e-01  1.36312342e+00  1.41734360e+00
  1.42190273e+00  1.59118948e+00  1.60813841e+00  1.61383379e+00
  3.94526847e+00  3.95761008e+00  4.06214210e+00  4.08780111e+00
  4.09641768e+00  5.25486138e+00  1.27492439e+01  1.27683248e+01
  1.86991468e+01  5.55953347e+01  5.56061301e+01  6.37166661e+01
  2.66611858e+02]
alpha-B1g nocc = 0
   mo_energy = [4.96767266e-02 1.77581584e-01 5.15171270e-01 5.68513529e-01
 5.73994948e-01 1.41721594e+00 1.60105057e+00 1.61240783e+00
 3.95441778e+00 4.07707553e+00 4.09426047e+00 1.27635346e+01
 5.56034323e+01]
alpha-B2g nocc = 0
   mo_energy = [4.96767266e-02 1.77581584e-01 5.15171270e-01 5.68513529e-01
 5.73994948e-01 1.41721594e+00 1.60105057e+00 1.61240783e+00
 3.95441778e+00 4.07707553e+00 4.09426047e+00 1.27635346e+01
 5.56034323e+01]
alpha-B3g nocc = 0
   mo_energy = [4.84997980e-02 1.76927063e-01 5.23048847e-01 5.63785191e-01
 5.71938426e-01 1.42190273e+00 1.59118948e+00 1.60813841e+00
 3.94526847e+00 4.06214210e+00 4.08780111e+00 1.27492439e+01
 5.55953347e+01]
alpha-Au nocc = 0
   mo_energy = [ 0.17372691  0.54931841  1.50143557  4.12267037 15.54430382]
alpha-B1u nocc = 0
   mo_energy = [1.12113223e-02 3.11403794e-02 9.09585496e-02 1.71408229e-01
 1.75136173e-01 3.23765326e-01 5.44045007e-01 5.52548271e-01
 1.04495942e+00 1.49270387e+00 1.50676502e+00 3.23819826e+00
 4.10865817e+00 4.13116375e+00 9.97615796e+00 1.55298059e+01
 1.55530179e+01 3.26655446e+01 1.11961586e+02]
alpha-B2u nocc = 0
   mo_energy = [1.12113223e-02 3.11403794e-02 9.09585496e-02 1.71408229e-01
 1.75136173e-01 3.23765326e-01 5.44045007e-01 5.52548271e-01
 1.04495942e+00 1.49270387e+00 1.50676502e+00 3.23819826e+00
 4.10865817e+00 4.13116375e+00 9.97615796e+00 1.55298059e+01
 1.55530179e+01 3.26655446e+01 1.11961586e+02]
alpha-B3u nocc = 1  HOMO = -0.308014136314528  LUMO = 0.0139848679021883
   mo_energy = [-3.08014136e-01  1.39848679e-02  6.93379363e-02  1.73726907e-01
  1.75609283e-01  2.89883427e-01  5.49318405e-01  5.53613947e-01
  1.02364468e+00  1.50143557e+00  1.50855015e+00  3.24353621e+00
  4.12267037e+00  4.13401078e+00  9.99399073e+00  1.55443038e+01
  1.55559252e+01  3.26800197e+01  1.11968859e+02]
beta-Ag nocc = 2  HOMO = -0.452931691155876  LUMO = 0.0170677456936979
   mo_energy = [-7.67665590e+00 -4.52931691e-01  1.70677457e-02  4.84967276e-02
  5.01685505e-02  9.73270062e-02  1.77625809e-01  1.87298312e-01
  3.87167452e-01  5.25729211e-01  5.54985827e-01  5.64014053e-01
  5.74627665e-01  5.79103396e-01  1.38322304e+00  1.42600632e+00
  1.47310013e+00  1.59177623e+00  1.61827589e+00  1.62742726e+00
  3.94937887e+00  3.99825496e+00  4.06295317e+00  4.10413307e+00
  4.11810129e+00  5.26879884e+00  1.27517443e+01  1.27870599e+01
  1.87045321e+01  5.55957728e+01  5.56102571e+01  6.37178231e+01
  2.66611868e+02]
beta-B1g nocc = 0
   mo_energy = [4.97255586e-02 1.84638837e-01 5.47081734e-01 5.70046233e-01
 5.77787225e-01 1.46057078e+00 1.60709850e+00 1.62511551e+00
 3.98572823e+00 4.08685803e+00 4.11459449e+00 1.27781841e+01
 5.56066383e+01]
beta-B2g nocc = 0
   mo_energy = [4.97255586e-02 1.84638837e-01 5.47081734e-01 5.70046233e-01
 5.77787225e-01 1.46057078e+00 1.60709850e+00 1.62511551e+00
 3.98572823e+00 4.08685803e+00 4.11459449e+00 1.27781841e+01
 5.56066383e+01]
beta-B3g nocc = 0
   mo_energy = [4.84967276e-02 1.77625809e-01 5.25729211e-01 5.64014053e-01
 5.74627665e-01 1.42600632e+00 1.59177623e+00 1.61827589e+00
 3.94937887e+00 4.06295317e+00 4.10413307e+00 1.27517443e+01
 5.55957728e+01]
beta-Au nocc = 0
   mo_energy = [ 0.17413342  0.55526107  1.51748596  4.14113083 15.55423664]
beta-B1u nocc = 0
   mo_energy = [1.16833245e-02 3.73383656e-02 9.78788695e-02 1.71467292e-01
 1.75777515e-01 3.30454025e-01 5.44779961e-01 5.61769408e-01
 1.05299001e+00 1.49425515e+00 1.53190521e+00 3.24510818e+00
 4.11069351e+00 4.15973298e+00 9.98013853e+00 1.55314278e+01
 1.55679562e+01 3.26667611e+01 1.11961543e+02]
beta-B2u nocc = 0
   mo_energy = [1.16833245e-02 3.73383656e-02 9.78788695e-02 1.71467292e-01
 1.75777515e-01 3.30454025e-01 5.44779961e-01 5.61769408e-01
 1.05299001e+00 1.49425515e+00 1.53190521e+00 3.24510818e+00
 4.11069351e+00 4.15973298e+00 9.98013853e+00 1.55314278e+01
 1.55679562e+01 3.26667611e+01 1.11961543e+02]
beta-B3u nocc = 0
   mo_energy = [1.29382122e-02 5.17625702e-02 1.27323020e-01 1.74133422e-01
 1.76359620e-01 3.61144656e-01 5.55261075e-01 5.63994815e-01
 1.09318695e+00 1.51748596e+00 1.53682170e+00 3.28930388e+00
 4.14113083e+00 4.16600474e+00 1.00159701e+01 1.55542366e+01
 1.55725352e+01 3.26872749e+01 1.11970299e+02]
multiplicity <S^2> = 0.75811313  2S+1 = 2.0080967
E1 = -32.34130975914637  Ecoul = 7.809136012834754
cycle= 3 E= -24.5321737463116  delta_E= -0.00707  |g|= 0.0164  |ddm|= 0.155
    CPU time for cycle= 3      0.37 sec, wall time      0.09 sec
diis-norm(errvec)=0.0231294
diis-c [-2.08566182e-04  9.22519457e-03 -3.70875271e-01  1.36165008e+00]
alpha HOMO (B3u) = -0.318371310521625  LUMO (B2u) = 0.0111076531660701
alpha irrep_nelec = [2, 0, 0, 0, 0, 0, 0, 1]
beta  irrep_nelec = [2, 0, 0, 0, 0, 0, 0, 0]
alpha-Ag nocc = 2  HOMO = -0.544070228915685  LUMO = 0.0165610727384105
   mo_energy = [-7.70329379e+00 -5.44070229e-01  1.65610727e-02  4.84424237e-02
  4.99043130e-02  9.36522877e-02  1.76894975e-01  1.78969177e-01
  3.74487675e-01  5.13015830e-01  5.22483090e-01  5.63828952e-01
  5.71733424e-01  5.74401594e-01  1.36026851e+00  1.41214389e+00
  1.41885787e+00  1.59078365e+00  1.60759353e+00  1.61324541e+00
  3.93766565e+00  3.94961353e+00  4.05783804e+00  4.08404705e+00
  4.09286981e+00  5.24672252e+00  1.27372030e+01  1.27573637e+01
  1.86863354e+01  5.55787792e+01  5.55903580e+01  6.36989647e+01
  2.66588440e+02]
alpha-B1g nocc = 0
   mo_energy = [4.95043215e-02 1.78180546e-01 5.14401671e-01 5.68405866e-01
 5.73733200e-01 1.41245361e+00 1.60056120e+00 1.61183027e+00
 3.94654633e+00 4.07307940e+00 4.09066003e+00 1.27522897e+01
 5.55874605e+01]
alpha-B2g nocc = 0
   mo_energy = [4.95043215e-02 1.78180546e-01 5.14401671e-01 5.68405866e-01
 5.73733200e-01 1.41245361e+00 1.60056120e+00 1.61183027e+00
 3.94654633e+00 4.07307940e+00 4.09066003e+00 1.27522897e+01
 5.55874605e+01]
alpha-B3g nocc = 0
   mo_energy = [4.84424237e-02 1.76894975e-01 5.22483090e-01 5.63828952e-01
 5.71733424e-01 1.41885787e+00 1.59078365e+00 1.60759353e+00
 3.93766565e+00 4.05783804e+00 4.08404705e+00 1.27372030e+01
 5.55787792e+01]
alpha-Au nocc = 0
   mo_energy = [ 0.17354017  0.54940437  1.49981318  4.11656602 15.53310329]
alpha-B1u nocc = 0
   mo_energy = [1.11076532e-02 3.03740080e-02 8.98056707e-02 1.71337672e-01
 1.74881066e-01 3.22253587e-01 5.44065932e-01 5.52645431e-01
 1.04094940e+00 1.49130043e+00 1.50491802e+00 3.23017909e+00
 4.10233681e+00 4.12516904e+00 9.96462556e+00 1.55176971e+01
 1.55423789e+01 3.26503794e+01 1.11941546e+02]
alpha-B2u nocc = 0
   mo_energy = [1.11076532e-02 3.03740080e-02 8.98056707e-02 1.71337672e-01
 1.74881066e-01 3.22253587e-01 5.44065932e-01 5.52645431e-01
 1.04094940e+00 1.49130043e+00 1.50491802e+00 3.23017909e+00
 4.10233681e+00 4.12516904e+00 9.96462556e+00 1.55176971e+01
 1.55423789e+01 3.26503794e+01 1.11941546e+02]
alpha-B3u nocc = 1  HOMO = -0.318371310521625  LUMO = 0.0134828437974281
   mo_energy = [-3.18371311e-01  1.34828438e-02  6.68951562e-02  1.73540172e-01
  1.75332983e-01  2.85219186e-01  5.49404372e-01  5.53710619e-01
  1.01628020e+00  1.49981318e+00  1.50661376e+00  3.23451811e+00
  4.11656602e+00  4.12804933e+00  9.98324987e+00  1.55331033e+01
  1.55454760e+01  3.26658319e+01  1.11949349e+02]
beta-Ag nocc = 2  HOMO = -0.449855726082441  LUMO = 0.0170568088070988
   mo_energy = [-7.69063228e+00 -4.49855726e-01  1.70568088e-02  4.84450351e-02
  5.00551352e-02  9.75815593e-02  1.77162898e-01  1.86405165e-01
  3.88283010e-01  5.23891455e-01  5.53839447e-01  5.63846839e-01
  5.73845272e-01  5.78127278e-01  1.38286573e+00  1.42253425e+00
  1.47246235e+00  1.59075443e+00  1.61742150e+00  1.62674014e+00
  3.94207870e+00  3.99438530e+00  4.05824301e+00  4.10155868e+00
  4.11637965e+00  5.26249080e+00  1.27399175e+01  1.27779389e+01
  1.86925014e+01  5.55793223e+01  5.55949435e+01  6.37004168e+01
  2.66588579e+02]
beta-B1g nocc = 0
   mo_energy = [4.96276165e-02 1.83865112e-01 5.45716087e-01 5.69516184e-01
 5.76855372e-01 1.45907798e+00 1.60612570e+00 1.62437814e+00
 3.98089060e+00 4.08332453e+00 4.11265128e+00 1.27683445e+01
 5.55910343e+01]
beta-B2g nocc = 0
   mo_energy = [4.96276165e-02 1.83865112e-01 5.45716087e-01 5.69516184e-01
 5.76855372e-01 1.45907798e+00 1.60612570e+00 1.62437814e+00
 3.98089060e+00 4.08332453e+00 4.11265128e+00 1.27683445e+01
 5.55910343e+01]
beta-B3g nocc = 0
   mo_energy = [4.84450351e-02 1.77162898e-01 5.23891455e-01 5.63846839e-01
 5.73845272e-01 1.42253425e+00 1.59075443e+00 1.61742150e+00
 3.94207870e+00 4.05824301e+00 4.10155868e+00 1.27399175e+01
 5.55793223e+01]
beta-Au nocc = 0
   mo_energy = [ 0.17383712  0.55440075  1.51597683  4.13661048 15.5440218 ]
beta-B1u nocc = 0
   mo_energy = [1.15217861e-02 3.53351896e-02 9.57757561e-02 1.71352830e-01
 1.75372850e-01 3.29118528e-01 5.44248041e-01 5.60734943e-01
 1.04920477e+00 1.49201383e+00 1.53094643e+00 3.23751551e+00
 4.10425993e+00 4.15649796e+00 9.96907986e+00 1.55194826e+01
 1.55588238e+01 3.26518647e+01 1.11941639e+02]
beta-B2u nocc = 0
   mo_energy = [1.15217861e-02 3.53351896e-02 9.57757561e-02 1.71352830e-01
 1.75372850e-01 3.29118528e-01 5.44248041e-01 5.60734943e-01
 1.04920477e+00 1.49201383e+00 1.53094643e+00 3.23751551e+00
 4.10425993e+00 4.15649796e+00 9.96907986e+00 1.55194826e+01
 1.55588238e+01 3.26518647e+01 1.11941639e+02]
beta-B3u nocc = 0
   mo_energy = [1.28847693e-02 5.09731326e-02 1.26804038e-01 1.73837116e-01
 1.75919931e-01 3.61641753e-01 5.54400752e-01 5.62910093e-01
 1.09157707e+00 1.51597683e+00 1.53607336e+00 3.28470553e+00
 4.13661048e+00 4.16322780e+00 1.00076079e+01 1.55440218e+01
 1.55637713e+01 3.26739649e+01 1.11951070e+02]
multiplicity <S^2> = 0.76086572  2S+1 = 2.0108364
E1 = -32.36169066439663  Ecoul = 7.828746800963296
cycle= 4 E= -24.5329438634333  delta_E= -0.00077  |g|= 0.00478  |ddm|= 0.0766
    CPU time for cycle= 4      0.34 sec, wall time      0.09 sec
diis-norm(errvec)=0.00675724
diis-c [-2.04641756e-05  5.67133757e-03  1.57898124e-01 -7.20317393e-01
  1.55674793e+00]
alpha HOMO (B3u) = -0.318035984955693  LUMO (B2u) = 0.0110411515365094
alpha irrep_nelec = [2, 0, 0, 0, 0, 0, 0, 1]
beta  irrep_nelec = [2, 0, 0, 0, 0, 0, 0, 0]
alpha-Ag nocc = 2  HOMO = -0.545512375550392  LUMO = 0.016357682361741
   mo_energy = [-7.70310629e+00 -5.45512376e-01  1.63576824e-02  4.83947579e-02
  4.97644023e-02  9.32791897e-02  1.76678473e-01  1.78694318e-01
  3.73818266e-01  5.12753571e-01  5.21951783e-01  5.63558676e-01
  5.71290221e-01  5.73905932e-01  1.35901422e+00  1.41063168e+00
  1.41784395e+00  1.59014923e+00  1.60674002e+00  1.61231753e+00
  3.93683500e+00  3.94846729e+00  4.05679703e+00  4.08292162e+00
  4.09171700e+00  5.24604434e+00  1.27373263e+01  1.27576609e+01
  1.86866407e+01  5.55797481e+01  5.55915622e+01  6.36999422e+01
  2.66589889e+02]
alpha-B1g nocc = 0
   mo_energy = [4.93902577e-02 1.77949334e-01 5.14229107e-01 5.68031742e-01
 5.73250601e-01 1.41114293e+00 1.59979864e+00 1.61092116e+00
 3.94549112e+00 4.07198804e+00 4.08951411e+00 1.27525389e+01
 5.55886046e+01]
alpha-B2g nocc = 0
   mo_energy = [4.93902577e-02 1.77949334e-01 5.14229107e-01 5.68031742e-01
 5.73250601e-01 1.41114293e+00 1.59979864e+00 1.61092116e+00
 3.94549112e+00 4.07198804e+00 4.08951411e+00 1.27525389e+01
 5.55886046e+01]
alpha-B3g nocc = 0
   mo_energy = [4.83947579e-02 1.76678473e-01 5.21951783e-01 5.63558676e-01
 5.71290221e-01 1.41784395e+00 1.59014923e+00 1.60674002e+00
 3.93683500e+00 4.05679703e+00 4.08292162e+00 1.27373263e+01
 5.55797481e+01]
alpha-Au nocc = 0
   mo_energy = [ 0.17335085  0.54900364  1.49894769  4.11548383 15.53323804]
alpha-B1u nocc = 0
   mo_energy = [1.10411515e-02 3.00174435e-02 8.94124543e-02 1.71218537e-01
 1.74651358e-01 3.21576747e-01 5.43706796e-01 5.52217832e-01
 1.04021509e+00 1.49049313e+00 1.50397946e+00 3.22971046e+00
 4.10129214e+00 4.12405060e+00 9.96469794e+00 1.55176388e+01
 1.55426346e+01 3.26510712e+01 1.11942728e+02]
alpha-B2u nocc = 0
   mo_energy = [1.10411515e-02 3.00174435e-02 8.94124543e-02 1.71218537e-01
 1.74651358e-01 3.21576747e-01 5.43706796e-01 5.52217832e-01
 1.04021509e+00 1.49049313e+00 1.50397946e+00 3.22971046e+00
 4.10129214e+00 4.12405060e+00 9.96469794e+00 1.55176388e+01
 1.55426346e+01 3.26510712e+01 1.11942728e+02]
alpha-B3u nocc = 1  HOMO = -0.318035984955693  LUMO = 0.0133473461320764
   mo_energy = [-3.18035985e-01  1.33473461e-02  6.58835357e-02  1.73350848e-01
  1.75089947e-01  2.83471115e-01  5.49003638e-01  5.53276684e-01
  1.01437639e+00  1.49894769e+00  1.50564331e+00  3.23346921e+00
  4.11548383e+00  4.12691573e+00  9.98338568e+00  1.55332380e+01
  1.55457730e+01  3.26667731e+01  1.11950701e+02]
beta-Ag nocc = 2  HOMO = -0.448158522236921  LUMO = 0.0170358320338214
   mo_energy = [-7.68879698e+00 -4.48158522e-01  1.70358320e-02  4.84055874e-02
  5.00383849e-02  9.75128739e-02  1.76816564e-01  1.85919543e-01
  3.88203817e-01  5.23036660e-01  5.52598072e-01  5.63505686e-01
  5.73275267e-01  5.77420585e-01  1.38297590e+00  1.42203313e+00
  1.47183794e+00  1.58996866e+00  1.61618992e+00  1.62538169e+00
  3.94189253e+00  3.99459415e+00  4.05741495e+00  4.10067669e+00
  4.11552626e+00  5.26306617e+00  1.27402494e+01  1.27788665e+01
  1.86935911e+01  5.55804925e+01  5.55964556e+01  6.37019635e+01
  2.66590415e+02]
beta-B1g nocc = 0
   mo_energy = [4.96039091e-02 1.83420112e-01 5.44580449e-01 5.69046638e-01
 5.76200477e-01 1.45847604e+00 1.60506977e+00 1.62304995e+00
 3.98097106e+00 4.08244274e+00 4.11178782e+00 1.27691091e+01
 5.55924587e+01]
beta-B2g nocc = 0
   mo_energy = [4.96039091e-02 1.83420112e-01 5.44580449e-01 5.69046638e-01
 5.76200477e-01 1.45847604e+00 1.60506977e+00 1.62304995e+00
 3.98097106e+00 4.08244274e+00 4.11178782e+00 1.27691091e+01
 5.55924587e+01]
beta-B3g nocc = 0
   mo_energy = [4.84055874e-02 1.76816564e-01 5.23036660e-01 5.63505686e-01
 5.73275267e-01 1.42203313e+00 1.58996866e+00 1.61618992e+00
 3.94189253e+00 4.05741495e+00 4.10067669e+00 1.27402494e+01
 5.55804925e+01]
beta-Au nocc = 0
   mo_energy = [ 0.17370091  0.55362679  1.51485975  4.13618433 15.54459247]
beta-B1u nocc = 0
   mo_energy = [1.14570922e-02 3.47604026e-02 9.54809163e-02 1.71231389e-01
 1.75227802e-01 3.29140086e-01 5.43693774e-01 5.59829513e-01
 1.04894480e+00 1.49114950e+00 1.52969878e+00 3.23748052e+00
 4.10371938e+00 4.15617972e+00 9.96959875e+00 1.55196638e+01
 1.55596433e+01 3.26529970e+01 1.11943230e+02]
beta-B2u nocc = 0
   mo_energy = [1.14570922e-02 3.47604026e-02 9.54809163e-02 1.71231389e-01
 1.75227802e-01 3.29140086e-01 5.43693774e-01 5.59829513e-01
 1.04894480e+00 1.49114950e+00 1.52969878e+00 3.23748052e+00
 4.10371938e+00 4.15617972e+00 9.96959875e+00 1.55196638e+01
 1.55596433e+01 3.26529970e+01 1.11943230e+02]
beta-B3u nocc = 0
   mo_energy = [1.28718193e-02 5.05168418e-02 1.26093754e-01 1.73700907e-01
 1.75770407e-01 3.61619795e-01 5.53626790e-01 5.61961010e-01
 1.09132102e+00 1.51485975e+00 1.53478727e+00 3.28495612e+00
 4.13618433e+00 4.16295391e+00 1.00086208e+01 1.55445925e+01
 1.55646765e+01 3.26755079e+01 1.11952872e+02]
multiplicity <S^2> = 0.76114658  2S+1 = 2.0111157
E1 = -32.36768683805901  Ecoul = 7.8346885520810226
cycle= 5 E= -24.532998285978  delta_E= -5.44e-05  |g|= 0.00125  |ddm|= 0.019
    CPU time for cycle= 5      0.36 sec, wall time      0.10 sec
diis-norm(errvec)=0.00177391
diis-c [-7.50453950e-07  7.54913469e-03 -5.21829849e-02  1.42352886e-01
 -4.70193267e-01  1.37247423e+00]
alpha HOMO (B3u) = -0.318778407656148  LUMO (B2u) = 0.0111089209234096
alpha irrep_nelec = [2, 0, 0, 0, 0, 0, 0, 1]
beta  irrep_nelec = [2, 0, 0, 0, 0, 0, 0, 0]
alpha-Ag nocc = 2  HOMO = -0.545116812329584  LUMO = 0.0164303936484251
   mo_energy = [-7.70105064e+00 -5.45116812e-01  1.64303936e-02  4.84292434e-02
  4.97968719e-02  9.34589668e-02  1.76882937e-01  1.78941202e-01
  3.74214216e-01  5.13411963e-01  5.22570597e-01  5.63821872e-01
  5.71498892e-01  5.74095898e-01  1.35992315e+00  1.41155010e+00
  1.41888417e+00  1.59083259e+00  1.60740001e+00  1.61296967e+00
  3.93843290e+00  3.95001570e+00  4.05802906e+00  4.08421505e+00
  4.09302886e+00  5.24775055e+00  1.27394609e+01  1.27599010e+01
  1.86887511e+01  5.55819601e+01  5.55938570e+01  6.37020244e+01
  2.66591719e+02]
alpha-B1g nocc = 0
   mo_energy = [4.94233716e-02 1.78178240e-01 5.14830099e-01 5.68263490e-01
 5.73445200e-01 1.41204030e+00 1.60046850e+00 1.61157526e+00
 3.94704795e+00 4.07325703e+00 4.09082145e+00 1.27547539e+01
 5.55908791e+01]
alpha-B2g nocc = 0
   mo_energy = [4.94233716e-02 1.78178240e-01 5.14830099e-01 5.68263490e-01
 5.73445200e-01 1.41204030e+00 1.60046850e+00 1.61157526e+00
 3.94704795e+00 4.07325703e+00 4.09082145e+00 1.27547539e+01
 5.55908791e+01]
alpha-B3g nocc = 0
   mo_energy = [4.84292434e-02 1.76882937e-01 5.22570597e-01 5.63821872e-01
 5.71498892e-01 1.41888417e+00 1.59083259e+00 1.60740001e+00
 3.93843290e+00 4.05802906e+00 4.08421505e+00 1.27394609e+01
 5.55819601e+01]
alpha-Au nocc = 0
   mo_energy = [ 0.17342865  0.54935994  1.49980084  4.11694602 15.53546007]
alpha-B1u nocc = 0
   mo_energy = [1.11089209e-02 3.04865228e-02 8.98378038e-02 1.71315151e-01
 1.74717000e-01 3.22152259e-01 5.44083685e-01 5.52565688e-01
 1.04130989e+00 1.49135574e+00 1.50483683e+00 3.23134816e+00
 4.10272703e+00 4.12553023e+00 9.96673282e+00 1.55197644e+01
 1.55449131e+01 3.26532373e+01 1.11944740e+02]
alpha-B2u nocc = 0
   mo_energy = [1.11089209e-02 3.04865228e-02 8.98378038e-02 1.71315151e-01
 1.74717000e-01 3.22152259e-01 5.44083685e-01 5.52565688e-01
 1.04130989e+00 1.49135574e+00 1.50483683e+00 3.23134816e+00
 4.10272703e+00 4.12553023e+00 9.96673282e+00 1.55197644e+01
 1.55449131e+01 3.26532373e+01 1.11944740e+02]
alpha-B3u nocc = 1  HOMO = -0.318778407656148  LUMO = 0.0133887481539512
   mo_energy = [-3.18778408e-01  1.33887482e-02  6.61781491e-02  1.73428648e-01
  1.75151379e-01  2.83792695e-01  5.49359941e-01  5.53622115e-01
  1.01508466e+00  1.49980084e+00  1.50650338e+00  3.23499412e+00
  4.11694602e+00  4.12840140e+00  9.98550132e+00  1.55354601e+01
  1.55480701e+01  3.26690434e+01  1.11952770e+02]
beta-Ag nocc = 2  HOMO = -0.446236772159962  LUMO = 0.0170707182785066
   mo_energy = [-7.68614593e+00 -4.46236772e-01  1.70707183e-02  4.84339491e-02
  5.00249994e-02  9.77209111e-02  1.76973492e-01  1.85971642e-01
  3.88930436e-01  5.23589634e-01  5.53063478e-01  5.63746256e-01
  5.73420301e-01  5.77538568e-01  1.38450228e+00  1.42329661e+00
  1.47322313e+00  1.59062086e+00  1.61678618e+00  1.62595406e+00
  3.94374169e+00  3.99670747e+00  4.05874107e+00  4.10213262e+00
  4.11702169e+00  5.26527349e+00  1.27424521e+01  1.27813357e+01
  1.86960038e+01  5.55827712e+01  5.55988583e+01  6.37042668e+01
  2.66592398e+02]
beta-B1g nocc = 0
   mo_energy = [4.96024865e-02 1.83503959e-01 5.45071440e-01 5.69232970e-01
 5.76322388e-01 1.45982394e+00 1.60569280e+00 1.62362834e+00
 3.98302060e+00 4.08384750e+00 4.11327332e+00 1.27715138e+01
 5.55948309e+01]
beta-B2g nocc = 0
   mo_energy = [4.96024865e-02 1.83503959e-01 5.45071440e-01 5.69232970e-01
 5.76322388e-01 1.45982394e+00 1.60569280e+00 1.62362834e+00
 3.98302060e+00 4.08384750e+00 4.11327332e+00 1.27715138e+01
 5.55948309e+01]
beta-B3g nocc = 0
   mo_energy = [4.84339491e-02 1.76973492e-01 5.23589634e-01 5.63746256e-01
 5.73420301e-01 1.42329661e+00 1.59062086e+00 1.61678618e+00
 3.94374169e+00 4.05874107e+00 4.10213262e+00 1.27424521e+01
 5.55827712e+01]
beta-Au nocc = 0
   mo_energy = [ 0.17374246  0.55388842  1.51573765  4.13796618 15.54698037]
beta-B1u nocc = 0
   mo_energy = [1.14910115e-02 3.51331342e-02 9.60572751e-02 1.71317690e-01
 1.75241007e-01 3.30012522e-01 5.44020088e-01 5.60045804e-01
 1.05026486e+00 1.49202483e+00 1.53056999e+00 3.23929122e+00
 4.10535557e+00 4.15804395e+00 9.97179351e+00 1.55218716e+01
 1.55621368e+01 3.26553228e+01 1.11945400e+02]
beta-B2u nocc = 0
   mo_energy = [1.14910115e-02 3.51331342e-02 9.60572751e-02 1.71317690e-01
 1.75241007e-01 3.30012522e-01 5.44020088e-01 5.60045804e-01
 1.05026486e+00 1.49202483e+00 1.53056999e+00 3.23929122e+00
 4.10535557e+00 4.15804395e+00 9.97179351e+00 1.55218716e+01
 1.55621368e+01 3.26553228e+01 1.11945400e+02]
beta-B3u nocc = 0
   mo_energy = [1.28634921e-02 5.06209471e-02 1.26742334e-01 1.73742462e-01
 1.75774163e-01 3.62628871e-01 5.53888420e-01 5.62160776e-01
 1.09276888e+00 1.51573765e+00 1.53565398e+00 3.28698790e+00
 4.13796618e+00 4.16484452e+00 1.00110688e+01 1.55469804e+01
 1.55672047e+01 3.26780002e+01 1.11955115e+02]
multiplicity <S^2> = 0.76131892  2S+1 = 2.0112871
E1 = -32.36809474703277  Ecoul = 7.835093090799392
cycle= 6 E= -24.5330016562334  delta_E= -3.37e-06  |g|= 0.000196  |ddm|= 0.00575
    CPU time for cycle= 6      0.35 sec, wall time      0.09 sec
diis-norm(errvec)=0.000277716
diis-c [-1.55685310e-08 -3.19585773e-03  1.48801247e-02 -2.74975180e-02
  9.70498067e-02 -4.13397027e-01  1.33216047e+00]
alpha HOMO (B3u) = -0.318790058568504  LUMO (B2u) = 0.0111074824476673
alpha irrep_nelec = [2, 0, 0, 0, 0, 0, 0, 1]
beta  irrep_nelec = [2, 0, 0, 0, 0, 0, 0, 0]
alpha-Ag nocc = 2  HOMO = -0.545261826009704  LUMO = 0.0164315801391529
   mo_energy = [-7.70129416e+00 -5.45261826e-01  1.64315801e-02  4.84299768e-02
  4.98003122e-02  9.34442094e-02  1.76882842e-01  1.78937303e-01
  3.74160152e-01  5.13392683e-01  5.22548278e-01  5.63819773e-01
  5.71499040e-01  5.74096646e-01  1.35980699e+00  1.41147126e+00
  1.41878941e+00  1.59080421e+00  1.60737206e+00  1.61294230e+00
  3.93827836e+00  3.94986394e+00  4.05792993e+00  4.08411234e+00
  4.09292459e+00  5.24756477e+00  1.27392746e+01  1.27597082e+01
  1.86885401e+01  5.55817636e+01  5.55936548e+01  6.37018199e+01
  2.66591547e+02]
alpha-B1g nocc = 0
   mo_energy = [4.94260701e-02 1.78172611e-01 5.14799898e-01 5.68262945e-01
 5.73445785e-01 1.41195474e+00 1.60044026e+00 1.61154771e+00
 3.94689569e+00 4.07315607e+00 4.09071759e+00 1.27545632e+01
 5.55906785e+01]
alpha-B2g nocc = 0
   mo_energy = [4.94260701e-02 1.78172611e-01 5.14799898e-01 5.68262945e-01
 5.73445785e-01 1.41195474e+00 1.60044026e+00 1.61154771e+00
 3.94689569e+00 4.07315607e+00 4.09071759e+00 1.27545632e+01
 5.55906785e+01]
alpha-B3g nocc = 0
   mo_energy = [4.84299768e-02 1.76882842e-01 5.22548278e-01 5.63819773e-01
 5.71499040e-01 1.41878941e+00 1.59080421e+00 1.60737206e+00
 3.93827836e+00 4.05792993e+00 4.08411234e+00 1.27392746e+01
 5.55817636e+01]
alpha-Au nocc = 0
   mo_energy = [ 0.17343106  0.54935194  1.49974934  4.11681043 15.53526496]
alpha-B1u nocc = 0
   mo_energy = [1.11074824e-02 3.04626942e-02 8.98031603e-02 1.71316006e-01
 1.74720165e-01 3.22089648e-01 5.44077725e-01 5.52557981e-01
 1.04121160e+00 1.49130499e+00 1.50478882e+00 3.23120316e+00
 4.10259301e+00 4.12539404e+00 9.96654772e+00 1.55195743e+01
 1.55447145e+01 3.26530341e+01 1.11944549e+02]
alpha-B2u nocc = 0
   mo_energy = [1.11074824e-02 3.04626942e-02 8.98031603e-02 1.71316006e-01
 1.74720165e-01 3.22089648e-01 5.44077725e-01 5.52557981e-01
 1.04121160e+00 1.49130499e+00 1.50478882e+00 3.23120316e+00
 4.10259301e+00 4.12539404e+00 9.96654772e+00 1.55195743e+01
 1.55447145e+01 3.26530341e+01 1.11944549e+02]
alpha-B3u nocc = 1  HOMO = -0.318790058568504  LUMO = 0.0133923708452095
   mo_energy = [-3.18790059e-01  1.33923708e-02  6.61717058e-02  1.73431058e-01
  1.75154745e-01  2.83763482e-01  5.49351941e-01  5.53614689e-01
  1.01501962e+00  1.49974934e+00  1.50645730e+00  3.23485811e+00
  4.11681043e+00  4.12826512e+00  9.98531128e+00  1.55352650e+01
  1.55478702e+01  3.26688336e+01  1.11952575e+02]
beta-Ag nocc = 2  HOMO = -0.446197048706703  LUMO = 0.0170712516645556
   mo_energy = [-7.68629950e+00 -4.46197049e-01  1.70712517e-02  4.84342076e-02
  5.00259605e-02  9.77200308e-02  1.76967633e-01  1.85970009e-01
  3.88917852e-01  5.23553982e-01  5.53021194e-01  5.63740891e-01
  5.73421060e-01  5.77537941e-01  1.38445055e+00  1.42323369e+00
  1.47313451e+00  1.59058549e+00  1.61675072e+00  1.62591417e+00
  3.94362193e+00  3.99656352e+00  4.05865603e+00  4.10203423e+00
  4.11691420e+00  5.26514636e+00  1.27422714e+01  1.27811381e+01
  1.86958372e+01  5.55825868e+01  5.55986664e+01  6.37041031e+01
  2.66592256e+02]
beta-B1g nocc = 0
   mo_energy = [4.96033215e-02 1.83502138e-01 5.45034922e-01 5.69231834e-01
 5.76323036e-01 1.45974842e+00 1.60565948e+00 1.62358985e+00
 3.98288626e+00 4.08375707e+00 4.11316835e+00 1.27713216e+01
 5.55946412e+01]
beta-B2g nocc = 0
   mo_energy = [4.96033215e-02 1.83502138e-01 5.45034922e-01 5.69231834e-01
 5.76323036e-01 1.45974842e+00 1.60565948e+00 1.62358985e+00
 3.98288626e+00 4.08375707e+00 4.11316835e+00 1.27713216e+01
 5.55946412e+01]
beta-B3g nocc = 0
   mo_energy = [4.84342076e-02 1.76967633e-01 5.23553982e-01 5.63740891e-01
 5.73421060e-01 1.42323369e+00 1.59058549e+00 1.61675072e+00
 3.94362193e+00 4.05865603e+00 4.10203423e+00 1.27422714e+01
 5.55825868e+01]
beta-Au nocc = 0
   mo_energy = [ 0.1737445   0.55387859  1.51568302  4.13785223 15.54679057]
beta-B1u nocc = 0
   mo_energy = [1.14891392e-02 3.51073001e-02 9.60300118e-02 1.71317729e-01
 1.75243960e-01 3.29986801e-01 5.44005823e-01 5.60036409e-01
 1.05018984e+00 1.49197324e+00 1.53050804e+00 3.23916169e+00
 4.10525208e+00 4.15791917e+00 9.97162772e+00 1.55216917e+01
 1.55619399e+01 3.26551476e+01 1.11945240e+02]
beta-B2u nocc = 0
   mo_energy = [1.14891392e-02 3.51073001e-02 9.60300118e-02 1.71317729e-01
 1.75243960e-01 3.29986801e-01 5.44005823e-01 5.60036409e-01
 1.05018984e+00 1.49197324e+00 1.53050804e+00 3.23916169e+00
 4.10525208e+00 4.15791917e+00 9.97162772e+00 1.55216917e+01
 1.55619399e+01 3.26551476e+01 1.11945240e+02]
beta-B3u nocc = 0
   mo_energy = [1.28632613e-02 5.06064952e-02 1.26685707e-01 1.73744497e-01
 1.75777295e-01 3.62585958e-01 5.53878587e-01 5.62150971e-01
 1.09267876e+00 1.51568302e+00 1.53558828e+00 3.28683939e+00
 4.13785223e+00 4.16471516e+00 1.00108868e+01 1.55467906e+01
 1.55670053e+01 3.26778149e+01 1.11954951e+02]
multiplicity <S^2> = 0.76133582  2S+1 = 2.0113039
E1 = -32.36807316129391  Ecoul = 7.835071442629958
cycle= 7 E= -24.533001718664  delta_E= -6.24e-08  |g|= 2.29e-05  |ddm|= 0.000723
    CPU time for cycle= 7      0.34 sec, wall time      0.09 sec
diis-norm(errvec)=3.24133e-05
diis-c [-2.63096014e-10  3.86813047e-04 -2.06458574e-03  3.30081705e-03
 -1.37487880e-02  6.92340119e-02 -2.92519450e-01  1.23541118e+00]
alpha HOMO (B3u) = -0.318787125226153  LUMO (B1u) = 0.0111067029265036
alpha irrep_nelec = [2, 0, 0, 0, 0, 0, 0, 1]
beta  irrep_nelec = [2, 0, 0, 0, 0, 0, 0, 0]
alpha-Ag nocc = 2  HOMO = -0.545280605524398  LUMO = 0.0164298137271077
   mo_energy = [-7.70132030e+00 -5.45280606e-01  1.64298137e-02  4.84291087e-02
  4.97991519e-02  9.34416956e-02  1.76879878e-01  1.78935791e-01
  3.74152880e-01  5.13386106e-01  5.22541876e-01  5.63815362e-01
  5.71495517e-01  5.74093418e-01  1.35979269e+00  1.41146126e+00
  1.41877706e+00  1.59079584e+00  1.60736462e+00  1.61293518e+00
  3.93826097e+00  3.94984834e+00  4.05791599e+00  4.08409938e+00
  4.09291199e+00  5.24754502e+00  1.27392551e+01  1.27596891e+01
  1.86885179e+01  5.55817415e+01  5.55936327e+01  6.37017960e+01
  2.66591521e+02]
alpha-B1g nocc = 0
[...]
   mo_energy = [1.14884208e-02 3.51011607e-02 9.60235279e-02 1.71315764e-01
 1.75242710e-01 3.29980477e-01 5.43999866e-01 5.60031952e-01
 1.05017906e+00 1.49196231e+00 1.53049970e+00 3.23914661e+00
 4.10523803e+00 4.15790599e+00 9.97161015e+00 1.55216737e+01
 1.55619210e+01 3.26551290e+01 1.11945221e+02]
beta-B2u nocc = 0
   mo_energy = [1.14884208e-02 3.51011607e-02 9.60235279e-02 1.71315764e-01
 1.75242710e-01 3.29980477e-01 5.43999866e-01 5.60031952e-01
 1.05017906e+00 1.49196231e+00 1.53049970e+00 3.23914661e+00
 4.10523803e+00 4.15790599e+00 9.97161015e+00 1.55216737e+01
 1.55619210e+01 3.26551290e+01 1.11945221e+02]
beta-B3u nocc = 0
   mo_energy = [1.28632910e-02 5.06036859e-02 1.26678959e-01 1.73742973e-01
 1.75776135e-01 3.62580240e-01 5.53873509e-01 5.62146742e-01
 1.09266891e+00 1.51567359e+00 1.53558034e+00 3.28682440e+00
 4.13783863e+00 4.16470214e+00 1.00108683e+01 1.55467720e+01
 1.55669862e+01 3.26777955e+01 1.11954931e+02]
multiplicity <S^2> = 0.76134196  2S+1 = 2.01131
E1 = -32.36809094869895  Ecoul = 7.835089229079311
cycle= 98 E= -24.5330017196196  delta_E= -1.42e-14  |g|= 3.3e-13  |ddm|= 1.08e-12
    CPU time for cycle= 98      0.34 sec, wall time      0.09 sec
diis-norm(errvec)=6.55343e-13
Linear dependence found in DIIS error vectors.
diis-c [-2.89052492e-16  1.25000000e-01  1.25000000e-01  1.25000000e-01
  1.25000000e-01  1.25000000e-01  1.25000000e-01  1.25000000e-01
  1.25000000e-01]
alpha HOMO (B3u) = -0.318786046453186  LUMO (B2u) = 0.0111068049871023
alpha irrep_nelec = [2, 0, 0, 0, 0, 0, 0, 1]
beta  irrep_nelec = [2, 0, 0, 0, 0, 0, 0, 0]
alpha-Ag nocc = 2  HOMO = -0.545281229459279  LUMO = 0.016429908486914
   mo_energy = [-7.70131990e+00 -5.45281229e-01  1.64299085e-02  4.84291705e-02
  4.97992599e-02  9.34416997e-02  1.76880148e-01  1.78936050e-01
  3.74152808e-01  5.13386247e-01  5.22542446e-01  5.63815634e-01
  5.71495870e-01  5.74093805e-01  1.35979284e+00  1.41146161e+00
  1.41877752e+00  1.59079628e+00  1.60736524e+00  1.61293586e+00
  3.93826161e+00  3.94984943e+00  4.05791657e+00  4.08410023e+00
  4.09291294e+00  5.24754553e+00  1.27392560e+01  1.27596901e+01
  1.86885184e+01  5.55817423e+01  5.55936334e+01  6.37017966e+01
  2.66591522e+02]
alpha-B1g nocc = 0
   mo_energy = [4.94250941e-02 1.78171117e-01 5.14793725e-01 5.68259367e-01
 5.73442861e-01 1.41194451e+00 1.60043299e+00 1.61154117e+00
 3.94688057e+00 4.07314342e+00 4.09070582e+00 1.27545450e+01
 5.55906571e+01]
alpha-B2g nocc = 0
   mo_energy = [4.94250941e-02 1.78171117e-01 5.14793725e-01 5.68259367e-01
 5.73442861e-01 1.41194451e+00 1.60043299e+00 1.61154117e+00
 3.94688057e+00 4.07314342e+00 4.09070582e+00 1.27545450e+01
 5.55906571e+01]
alpha-B3g nocc = 0
   mo_energy = [4.84291705e-02 1.76880148e-01 5.22542446e-01 5.63815634e-01
 5.71495870e-01 1.41877752e+00 1.59079628e+00 1.60736524e+00
 3.93826161e+00 4.05791657e+00 4.08410023e+00 1.27392560e+01
 5.55817423e+01]
alpha-Au nocc = 0
   mo_energy = [ 0.17342942  0.54934786  1.49974076  4.1167959  15.53524628]
alpha-B1u nocc = 0
   mo_energy = [1.11068050e-02 3.04594105e-02 8.97983171e-02 1.71314073e-01
 1.74718723e-01 3.22081311e-01 5.44072967e-01 5.52554213e-01
 1.04119933e+00 1.49129581e+00 1.50478048e+00 3.23118759e+00
 4.10257758e+00 4.12538009e+00 9.96652849e+00 1.55195555e+01
 1.55446959e+01 3.26530124e+01 1.11944525e+02]
alpha-B2u nocc = 0
   mo_energy = [1.11068050e-02 3.04594105e-02 8.97983171e-02 1.71314073e-01
 1.74718723e-01 3.22081311e-01 5.44072967e-01 5.52554213e-01
 1.04119933e+00 1.49129581e+00 1.50478048e+00 3.23118759e+00
 4.10257758e+00 4.12538009e+00 9.96652849e+00 1.55195555e+01
 1.55446959e+01 3.26530124e+01 1.11944525e+02]
alpha-B3u nocc = 1  HOMO = -0.318786046453186  LUMO = 0.0133901846725069
   mo_energy = [-3.18786046e-01  1.33901847e-02  6.61661020e-02  1.73429423e-01
  1.75153374e-01  2.83761037e-01  5.49347863e-01  5.53611019e-01
  1.01501193e+00  1.49974076e+00  1.50644906e+00  3.23484494e+00
  4.11679590e+00  4.12825137e+00  9.98529283e+00  1.55352463e+01
  1.55478516e+01  3.26688118e+01  1.11952551e+02]
beta-Ag nocc = 2  HOMO = -0.446210534629731  LUMO = 0.017070918357146
   mo_energy = [-7.68631478e+00 -4.46210535e-01  1.70709184e-02  4.84334897e-02
  5.00258637e-02  9.77196252e-02  1.76964083e-01  1.85967502e-01
  3.88916924e-01  5.23545181e-01  5.53014982e-01  5.63736337e-01
  5.73417398e-01  5.77534641e-01  1.38444344e+00  1.42322226e+00
  1.47312517e+00  1.59057609e+00  1.61674345e+00  1.62590774e+00
  3.94360750e+00  3.99654933e+00  4.05864259e+00  4.10202232e+00
  4.11690289e+00  5.26513269e+00  1.27422532e+01  1.27811188e+01
  1.86958203e+01  5.55825671e+01  5.55986460e+01  6.37040844e+01
  2.66592235e+02]
beta-B1g nocc = 0
   mo_energy = [4.96030478e-02 1.83499292e-01 5.45027837e-01 5.69227773e-01
 5.76319637e-01 1.45973829e+00 1.60565125e+00 1.62358320e+00
 3.98287190e+00 4.08374445e+00 4.11315688e+00 1.27713026e+01
 5.55946209e+01]
beta-B2g nocc = 0
   mo_energy = [4.96030478e-02 1.83499292e-01 5.45027837e-01 5.69227773e-01
 5.76319637e-01 1.45973829e+00 1.60565125e+00 1.62358320e+00
 3.98287190e+00 4.08374445e+00 4.11315688e+00 1.27713026e+01
 5.55946209e+01]
beta-B3g nocc = 0
   mo_energy = [4.84334897e-02 1.76964083e-01 5.23545181e-01 5.63736337e-01
 5.73417398e-01 1.42322226e+00 1.59057609e+00 1.61674345e+00
 3.94360750e+00 4.05864259e+00 4.10202232e+00 1.27422532e+01
 5.55825671e+01]
beta-Au nocc = 0
   mo_energy = [ 0.17374297  0.55387351  1.51567359  4.13783863 15.54677197]
beta-B1u nocc = 0
   mo_energy = [1.14884208e-02 3.51011607e-02 9.60235279e-02 1.71315764e-01
 1.75242710e-01 3.29980477e-01 5.43999866e-01 5.60031952e-01
 1.05017906e+00 1.49196231e+00 1.53049970e+00 3.23914661e+00
 4.10523803e+00 4.15790599e+00 9.97161015e+00 1.55216737e+01
 1.55619210e+01 3.26551290e+01 1.11945221e+02]
beta-B2u nocc = 0
   mo_energy = [1.14884208e-02 3.51011607e-02 9.60235279e-02 1.71315764e-01
 1.75242710e-01 3.29980477e-01 5.43999866e-01 5.60031952e-01
 1.05017906e+00 1.49196231e+00 1.53049970e+00 3.23914661e+00
 4.10523803e+00 4.15790599e+00 9.97161015e+00 1.55216737e+01
 1.55619210e+01 3.26551290e+01 1.11945221e+02]
beta-B3u nocc = 0
   mo_energy = [1.28632910e-02 5.06036859e-02 1.26678959e-01 1.73742973e-01
 1.75776135e-01 3.62580240e-01 5.53873509e-01 5.62146742e-01
 1.09266891e+00 1.51567359e+00 1.53558034e+00 3.28682440e+00
 4.13783863e+00 4.16470214e+00 1.00108683e+01 1.55467720e+01
 1.55669862e+01 3.26777955e+01 1.11954931e+02]
multiplicity <S^2> = 0.76134196  2S+1 = 2.01131
E1 = -32.36809094869885  Ecoul = 7.8350892290792205
cycle= 99 E= -24.5330017196196  delta_E= 7.11e-15  |g|= 3.6e-13  |ddm|= 1.15e-12
    CPU time for cycle= 99      0.34 sec, wall time      0.09 sec
diis-norm(errvec)=6.43197e-13
Linear dependence found in DIIS error vectors.
diis-c [-2.89052492e-16  1.25000000e-01  1.25000000e-01  1.25000000e-01
  1.25000000e-01  1.25000000e-01  1.25000000e-01  1.25000000e-01
  1.25000000e-01]
alpha HOMO (B3u) = -0.318786046453172  LUMO (B2u) = 0.0111068049871019
alpha irrep_nelec = [2, 0, 0, 0, 0, 0, 0, 1]
beta  irrep_nelec = [2, 0, 0, 0, 0, 0, 0, 0]
alpha-Ag nocc = 2  HOMO = -0.545281229459263  LUMO = 0.0164299084868697
   mo_energy = [-7.70131990e+00 -5.45281229e-01  1.64299085e-02  4.84291705e-02
  4.97992599e-02  9.34416997e-02  1.76880148e-01  1.78936050e-01
  3.74152808e-01  5.13386247e-01  5.22542446e-01  5.63815634e-01
  5.71495870e-01  5.74093805e-01  1.35979284e+00  1.41146161e+00
  1.41877752e+00  1.59079628e+00  1.60736524e+00  1.61293586e+00
  3.93826161e+00  3.94984943e+00  4.05791657e+00  4.08410023e+00
  4.09291294e+00  5.24754553e+00  1.27392560e+01  1.27596901e+01
  1.86885184e+01  5.55817423e+01  5.55936334e+01  6.37017966e+01
  2.66591522e+02]
alpha-B1g nocc = 0
   mo_energy = [4.94250941e-02 1.78171117e-01 5.14793725e-01 5.68259367e-01
 5.73442861e-01 1.41194451e+00 1.60043299e+00 1.61154117e+00
 3.94688057e+00 4.07314342e+00 4.09070582e+00 1.27545450e+01
 5.55906571e+01]
alpha-B2g nocc = 0
   mo_energy = [4.94250941e-02 1.78171117e-01 5.14793725e-01 5.68259367e-01
 5.73442861e-01 1.41194451e+00 1.60043299e+00 1.61154117e+00
 3.94688057e+00 4.07314342e+00 4.09070582e+00 1.27545450e+01
 5.55906571e+01]
alpha-B3g nocc = 0
   mo_energy = [4.84291705e-02 1.76880148e-01 5.22542446e-01 5.63815634e-01
 5.71495870e-01 1.41877752e+00 1.59079628e+00 1.60736524e+00
 3.93826161e+00 4.05791657e+00 4.08410023e+00 1.27392560e+01
 5.55817423e+01]
alpha-Au nocc = 0
   mo_energy = [ 0.17342942  0.54934786  1.49974076  4.1167959  15.53524628]
alpha-B1u nocc = 0
   mo_energy = [1.11068050e-02 3.04594105e-02 8.97983171e-02 1.71314073e-01
 1.74718723e-01 3.22081311e-01 5.44072967e-01 5.52554213e-01
 1.04119933e+00 1.49129581e+00 1.50478048e+00 3.23118759e+00
 4.10257758e+00 4.12538009e+00 9.96652849e+00 1.55195555e+01
 1.55446959e+01 3.26530124e+01 1.11944525e+02]
alpha-B2u nocc = 0
   mo_energy = [1.11068050e-02 3.04594105e-02 8.97983171e-02 1.71314073e-01
 1.74718723e-01 3.22081311e-01 5.44072967e-01 5.52554213e-01
 1.04119933e+00 1.49129581e+00 1.50478048e+00 3.23118759e+00
 4.10257758e+00 4.12538009e+00 9.96652849e+00 1.55195555e+01
 1.55446959e+01 3.26530124e+01 1.11944525e+02]
alpha-B3u nocc = 1  HOMO = -0.318786046453172  LUMO = 0.0133901846725076
   mo_energy = [-3.18786046e-01  1.33901847e-02  6.61661020e-02  1.73429423e-01
  1.75153374e-01  2.83761037e-01  5.49347863e-01  5.53611019e-01
  1.01501193e+00  1.49974076e+00  1.50644906e+00  3.23484494e+00
  4.11679590e+00  4.12825137e+00  9.98529283e+00  1.55352463e+01
  1.55478516e+01  3.26688118e+01  1.11952551e+02]
beta-Ag nocc = 2  HOMO = -0.446210534629789  LUMO = 0.0170709183571448
   mo_energy = [-7.68631478e+00 -4.46210535e-01  1.70709184e-02  4.84334897e-02
  5.00258637e-02  9.77196252e-02  1.76964083e-01  1.85967502e-01
  3.88916924e-01  5.23545181e-01  5.53014982e-01  5.63736337e-01
  5.73417398e-01  5.77534641e-01  1.38444344e+00  1.42322226e+00
  1.47312517e+00  1.59057609e+00  1.61674345e+00  1.62590774e+00
  3.94360750e+00  3.99654933e+00  4.05864259e+00  4.10202232e+00
  4.11690289e+00  5.26513269e+00  1.27422532e+01  1.27811188e+01
  1.86958203e+01  5.55825671e+01  5.55986460e+01  6.37040844e+01
  2.66592235e+02]
beta-B1g nocc = 0
   mo_energy = [4.96030478e-02 1.83499292e-01 5.45027837e-01 5.69227773e-01
 5.76319637e-01 1.45973829e+00 1.60565125e+00 1.62358320e+00
 3.98287190e+00 4.08374445e+00 4.11315688e+00 1.27713026e+01
 5.55946209e+01]
beta-B2g nocc = 0
   mo_energy = [4.96030478e-02 1.83499292e-01 5.45027837e-01 5.69227773e-01
 5.76319637e-01 1.45973829e+00 1.60565125e+00 1.62358320e+00
 3.98287190e+00 4.08374445e+00 4.11315688e+00 1.27713026e+01
 5.55946209e+01]
beta-B3g nocc = 0
   mo_energy = [4.84334897e-02 1.76964083e-01 5.23545181e-01 5.63736337e-01
 5.73417398e-01 1.42322226e+00 1.59057609e+00 1.61674345e+00
 3.94360750e+00 4.05864259e+00 4.10202232e+00 1.27422532e+01
 5.55825671e+01]
beta-Au nocc = 0
   mo_energy = [ 0.17374297  0.55387351  1.51567359  4.13783863 15.54677197]
beta-B1u nocc = 0
   mo_energy = [1.14884208e-02 3.51011607e-02 9.60235279e-02 1.71315764e-01
 1.75242710e-01 3.29980477e-01 5.43999866e-01 5.60031952e-01
 1.05017906e+00 1.49196231e+00 1.53049970e+00 3.23914661e+00
 4.10523803e+00 4.15790599e+00 9.97161015e+00 1.55216737e+01
 1.55619210e+01 3.26551290e+01 1.11945221e+02]
beta-B2u nocc = 0
   mo_energy = [1.14884208e-02 3.51011607e-02 9.60235279e-02 1.71315764e-01
 1.75242710e-01 3.29980477e-01 5.43999866e-01 5.60031952e-01
 1.05017906e+00 1.49196231e+00 1.53049970e+00 3.23914661e+00
 4.10523803e+00 4.15790599e+00 9.97161015e+00 1.55216737e+01
 1.55619210e+01 3.26551290e+01 1.11945221e+02]
beta-B3u nocc = 0
   mo_energy = [1.28632910e-02 5.06036859e-02 1.26678959e-01 1.73742973e-01
 1.75776135e-01 3.62580240e-01 5.53873509e-01 5.62146742e-01
 1.09266891e+00 1.51567359e+00 1.53558034e+00 3.28682440e+00
 4.13783863e+00 4.16470214e+00 1.00108683e+01 1.55467720e+01
 1.55669862e+01 3.26777955e+01 1.11954931e+02]
multiplicity <S^2> = 0.76134196  2S+1 = 2.01131
E1 = -32.368090948698885  Ecoul = 7.835089229079244
cycle= 100 E= -24.5330017196196  delta_E= -1.07e-14  |g|= 2.9e-13  |ddm|= 9.43e-13
    CPU time for cycle= 100      0.34 sec, wall time      0.09 sec
alpha HOMO (B3u) = -0.318786046453111  LUMO (B2u) = 0.0111068049871026
alpha irrep_nelec = [2, 0, 0, 0, 0, 0, 0, 1]
beta  irrep_nelec = [2, 0, 0, 0, 0, 0, 0, 0]
alpha-Ag nocc = 2  HOMO = -0.545281229459317  LUMO = 0.0164299084868739
   mo_energy = [-7.70131990e+00 -5.45281229e-01  1.64299085e-02  4.84291705e-02
  4.97992599e-02  9.34416997e-02  1.76880148e-01  1.78936050e-01
  3.74152808e-01  5.13386247e-01  5.22542446e-01  5.63815634e-01
  5.71495870e-01  5.74093805e-01  1.35979284e+00  1.41146161e+00
  1.41877752e+00  1.59079628e+00  1.60736524e+00  1.61293586e+00
  3.93826161e+00  3.94984943e+00  4.05791657e+00  4.08410023e+00
  4.09291294e+00  5.24754553e+00  1.27392560e+01  1.27596901e+01
  1.86885184e+01  5.55817423e+01  5.55936334e+01  6.37017966e+01
  2.66591522e+02]
alpha-B1g nocc = 0
   mo_energy = [4.94250941e-02 1.78171117e-01 5.14793725e-01 5.68259367e-01
 5.73442861e-01 1.41194451e+00 1.60043299e+00 1.61154117e+00
 3.94688057e+00 4.07314342e+00 4.09070582e+00 1.27545450e+01
 5.55906571e+01]
alpha-B2g nocc = 0
   mo_energy = [4.94250941e-02 1.78171117e-01 5.14793725e-01 5.68259367e-01
 5.73442861e-01 1.41194451e+00 1.60043299e+00 1.61154117e+00
 3.94688057e+00 4.07314342e+00 4.09070582e+00 1.27545450e+01
 5.55906571e+01]
alpha-B3g nocc = 0
   mo_energy = [4.84291705e-02 1.76880148e-01 5.22542446e-01 5.63815634e-01
 5.71495870e-01 1.41877752e+00 1.59079628e+00 1.60736524e+00
 3.93826161e+00 4.05791657e+00 4.08410023e+00 1.27392560e+01
 5.55817423e+01]
alpha-Au nocc = 0
   mo_energy = [ 0.17342942  0.54934786  1.49974076  4.1167959  15.53524628]
alpha-B1u nocc = 0
   mo_energy = [1.11068050e-02 3.04594105e-02 8.97983171e-02 1.71314073e-01
 1.74718723e-01 3.22081311e-01 5.44072967e-01 5.52554213e-01
 1.04119933e+00 1.49129581e+00 1.50478048e+00 3.23118759e+00
 4.10257758e+00 4.12538009e+00 9.96652849e+00 1.55195555e+01
 1.55446959e+01 3.26530124e+01 1.11944525e+02]
alpha-B2u nocc = 0
   mo_energy = [1.11068050e-02 3.04594105e-02 8.97983171e-02 1.71314073e-01
 1.74718723e-01 3.22081311e-01 5.44072967e-01 5.52554213e-01
 1.04119933e+00 1.49129581e+00 1.50478048e+00 3.23118759e+00
 4.10257758e+00 4.12538009e+00 9.96652849e+00 1.55195555e+01
 1.55446959e+01 3.26530124e+01 1.11944525e+02]
alpha-B3u nocc = 1  HOMO = -0.318786046453111  LUMO = 0.0133901846725113
   mo_energy = [-3.18786046e-01  1.33901847e-02  6.61661020e-02  1.73429423e-01
  1.75153374e-01  2.83761037e-01  5.49347863e-01  5.53611019e-01
  1.01501193e+00  1.49974076e+00  1.50644906e+00  3.23484494e+00
  4.11679590e+00  4.12825137e+00  9.98529283e+00  1.55352463e+01
  1.55478516e+01  3.26688118e+01  1.11952551e+02]
beta-Ag nocc = 2  HOMO = -0.44621053462993  LUMO = 0.0170709183571677
   mo_energy = [-7.68631478e+00 -4.46210535e-01  1.70709184e-02  4.84334897e-02
  5.00258637e-02  9.77196252e-02  1.76964083e-01  1.85967502e-01
  3.88916924e-01  5.23545181e-01  5.53014982e-01  5.63736337e-01
  5.73417398e-01  5.77534641e-01  1.38444344e+00  1.42322226e+00
  1.47312517e+00  1.59057609e+00  1.61674345e+00  1.62590774e+00
  3.94360750e+00  3.99654933e+00  4.05864259e+00  4.10202232e+00
  4.11690289e+00  5.26513269e+00  1.27422532e+01  1.27811188e+01
  1.86958203e+01  5.55825671e+01  5.55986460e+01  6.37040844e+01
  2.66592235e+02]
beta-B1g nocc = 0
   mo_energy = [4.96030478e-02 1.83499292e-01 5.45027837e-01 5.69227773e-01
 5.76319637e-01 1.45973829e+00 1.60565125e+00 1.62358320e+00
 3.98287190e+00 4.08374445e+00 4.11315688e+00 1.27713026e+01
 5.55946209e+01]
beta-B2g nocc = 0
   mo_energy = [4.96030478e-02 1.83499292e-01 5.45027837e-01 5.69227773e-01
 5.76319637e-01 1.45973829e+00 1.60565125e+00 1.62358320e+00
 3.98287190e+00 4.08374445e+00 4.11315688e+00 1.27713026e+01
 5.55946209e+01]
beta-B3g nocc = 0
   mo_energy = [4.84334897e-02 1.76964083e-01 5.23545181e-01 5.63736337e-01
 5.73417398e-01 1.42322226e+00 1.59057609e+00 1.61674345e+00
 3.94360750e+00 4.05864259e+00 4.10202232e+00 1.27422532e+01
 5.55825671e+01]
beta-Au nocc = 0
   mo_energy = [ 0.17374297  0.55387351  1.51567359  4.13783863 15.54677197]
beta-B1u nocc = 0
   mo_energy = [1.14884208e-02 3.51011607e-02 9.60235279e-02 1.71315764e-01
 1.75242710e-01 3.29980477e-01 5.43999866e-01 5.60031952e-01
 1.05017906e+00 1.49196231e+00 1.53049970e+00 3.23914661e+00
 4.10523803e+00 4.15790599e+00 9.97161015e+00 1.55216737e+01
 1.55619210e+01 3.26551290e+01 1.11945221e+02]
beta-B2u nocc = 0
   mo_energy = [1.14884208e-02 3.51011607e-02 9.60235279e-02 1.71315764e-01
 1.75242710e-01 3.29980477e-01 5.43999866e-01 5.60031952e-01
 1.05017906e+00 1.49196231e+00 1.53049970e+00 3.23914661e+00
 4.10523803e+00 4.15790599e+00 9.97161015e+00 1.55216737e+01
 1.55619210e+01 3.26551290e+01 1.11945221e+02]
beta-B3u nocc = 0
   mo_energy = [1.28632910e-02 5.06036859e-02 1.26678959e-01 1.73742973e-01
 1.75776135e-01 3.62580240e-01 5.53873509e-01 5.62146742e-01
 1.09266891e+00 1.51567359e+00 1.53558034e+00 3.28682440e+00
 4.13783863e+00 4.16470214e+00 1.00108683e+01 1.55467720e+01
 1.55669862e+01 3.26777955e+01 1.11954931e+02]
multiplicity <S^2> = 0.76134196  2S+1 = 2.01131
E1 = -32.368090948698736  Ecoul = 7.835089229079104
Extra cycle  E= -24.5330017196196  delta_E= 7.11e-15  |g|= 2.72e-13  |ddm|= 9.43e-13
    CPU time for scf_cycle     41.93 sec, wall time     10.72 sec
    CPU time for SCF     42.05 sec, wall time     10.76 sec
converged SCF energy = -24.5330017196196  <S^2> = 0.76134196  2S+1 = 2.01131
irreps of each MO ['Ag' 'Ag' 'B3u' 'B1u' 'B2u' 'B3u' 'Ag' 'B1u' 'B2u' 'Ag' 'B3g' 'B1g' 'B2g'
 'Ag' 'B3u' 'B1u' 'B2u' 'Ag' 'B1u' 'B2u' 'Au' 'B3u' 'B1u' 'B2u' 'B3u' 'Ag'
 'B3g' 'B1g' 'B2g' 'Ag' 'B3u' 'B1u' 'B2u' 'Ag' 'Ag' 'B1g' 'B2g' 'Ag' 'B3g'
 'B1u' 'B2u' 'Au' 'B3u' 'B1u' 'B2u' 'B3u' 'Ag' 'B3g' 'B1g' 'B2g' 'Ag'
 'B3g' 'B1g' 'B2g' 'Ag' 'B3u' 'B1u' 'B2u' 'Ag' 'Ag' 'B1g' 'B2g' 'Ag' 'B3g'
 'B1u' 'B2u' 'Au' 'B3u' 'B1u' 'B2u' 'B3u' 'Ag' 'B3g' 'B1g' 'B2g' 'Ag'
 'B3g' 'B1g' 'B2g' 'Ag' 'B1u' 'B2u' 'B3u' 'Ag' 'B3g' 'B1g' 'B2g' 'Ag' 'Ag'
 'B3g' 'B1g' 'B2g' 'Ag' 'B3g' 'B1g' 'B2g' 'Ag' 'B1u' 'B2u' 'Au' 'B3u'
 'B1u' 'B2u' 'B3u' 'Ag' 'B1u' 'B2u' 'B3u' 'Ag' 'B3g' 'B1g' 'B2g' 'Ag'
 'B1u' 'B2u' 'Au' 'B3u' 'B1u' 'B2u' 'B3u' 'Ag' 'B1u' 'B2u' 'B3u' 'Ag'
 'B3g' 'B1g' 'B2g' 'Ag' 'Ag' 'B1u' 'B2u' 'B3u' 'Ag']
irreps of each MO ['Ag' 'Ag' 'B1u' 'B2u' 'B3u' 'Ag' 'B1u' 'B2u' 'Ag' 'B3g' 'B1g' 'B2g' 'Ag'
 'B3u' 'B1u' 'B2u' 'Ag' 'B3u' 'B1u' 'B2u' 'Au' 'B3u' 'B1u' 'B2u' 'B3u'
 'Ag' 'B3g' 'B1g' 'B2g' 'Ag' 'B1u' 'B2u' 'B3u' 'Ag' 'Ag' 'B3g' 'B1u' 'B2u'
 'B1g' 'B2g' 'Ag' 'Au' 'B3u' 'B1u' 'B2u' 'B3u' 'Ag' 'B3g' 'B1g' 'B2g' 'Ag'
 'B3g' 'B1g' 'B2g' 'Ag' 'B1u' 'B2u' 'B3u' 'Ag' 'Ag' 'B3g' 'B1g' 'B2g' 'Ag'
 'B1u' 'B2u' 'Au' 'B3u' 'B1u' 'B2u' 'B3u' 'Ag' 'B3g' 'B1g' 'B2g' 'Ag'
 'B3g' 'B1g' 'B2g' 'Ag' 'B1u' 'B2u' 'B3u' 'Ag' 'B3g' 'B1g' 'B2g' 'Ag' 'Ag'
 'B3g' 'B1g' 'B2g' 'Ag' 'B3g' 'B1u' 'B2u' 'B1g' 'B2g' 'Ag' 'Au' 'B3u'
 'B1u' 'B2u' 'B3u' 'Ag' 'B1u' 'B2u' 'B3u' 'Ag' 'B3g' 'B1g' 'B2g' 'Ag'
 'B1u' 'B2u' 'Au' 'B3u' 'B1u' 'B2u' 'B3u' 'Ag' 'B1u' 'B2u' 'B3u' 'Ag'
 'B3g' 'B1g' 'B2g' 'Ag' 'Ag' 'B1u' 'B2u' 'B3u' 'Ag']
irreps of each MO ['Ag' 'Ag' 'B3u' 'B2u' 'B1u' 'B3u' 'Ag' 'B2u' 'B1u' 'Ag' 'B3g' 'B2g' 'B1g'
 'Ag' 'B3u' 'B2u' 'B1u' 'Ag' 'B2u' 'B1u' 'B3u' 'Au' 'B1u' 'B2u' 'B3u' 'Ag'
 'B3g' 'B2g' 'B1g' 'Ag' 'B3u' 'B1u' 'B2u' 'Ag' 'Ag' 'B2g' 'B1g' 'Ag' 'B3g'
 'B2u' 'B1u' 'Au' 'B3u' 'B2u' 'B1u' 'B3u' 'Ag' 'B3g' 'B1g' 'B2g' 'B3g'
 'Ag' 'B2g' 'B1g' 'Ag' 'B3u' 'B1u' 'B2u' 'Ag' 'Ag' 'B2g' 'B1g' 'B3g' 'Ag'
 'B2u' 'B1u' 'Au' 'B3u' 'B2u' 'B1u' 'B3u' 'B3g' 'Ag' 'B2g' 'B1g' 'B3g'
 'Ag' 'B1g' 'B2g' 'Ag' 'B2u' 'B1u' 'B3u' 'B3g' 'Ag' 'B1g' 'B2g' 'Ag' 'B3g'
 'Ag' 'B2g' 'B1g' 'B3g' 'Ag' 'B1g' 'B2g' 'Ag' 'B1u' 'B2u' 'Au' 'B3u' 'B2u'
 'B1u' 'B3u' 'Ag' 'B2u' 'B1u' 'B3u' 'Ag' 'B3g' 'B2g' 'B1g' 'Ag' 'B2u'
 'B1u' 'B3u' 'Au' 'B2u' 'B1u' 'B3u' 'Ag' 'B2u' 'B1u' 'B3u' 'Ag' 'B3g'
 'B1g' 'B2g' 'Ag' 'Ag' 'B2u' 'B1u' 'B3u' 'Ag']
