[Molden Format]
[ATOMS] AU
 Li    1    3        0.0000000000        0.0000000000        0.0000000000
[GTO]
   1   0
 s   10 1.00
  0.6424189150D+03  0.2142607810D-02
  0.9679851530D+02  0.1620887150D-01
  0.2209112120D+02  0.7731557250D-01
  0.6201070250D+01  0.2457860520D+00
  0.1935117680D+01  0.4701890040D+00
  0.6367357890D+00  0.3454708450D+00
  0.2324918408D+01  0.0000000000D+00
  0.6324303556D+00  0.0000000000D+00
  0.7905343475D-01  0.0000000000D+00
  0.3596197175D-01  0.0000000000D+00
 s   10 1.00
  0.6424189150D+03  0.0000000000D+00
  0.9679851530D+02  0.0000000000D+00
  0.2209112120D+02  0.0000000000D+00
  0.6201070250D+01  0.0000000000D+00
  0.1935117680D+01  0.0000000000D+00
  0.6367357890D+00  0.0000000000D+00
  0.2324918408D+01 -0.3509174574D-01
  0.6324303556D+00 -0.1912328431D+00
  0.7905343475D-01  0.1083987795D+01
  0.3596197175D-01  0.0000000000D+00
 s   10 1.00
  0.6424189150D+03  0.0000000000D+00
  0.9679851530D+02  0.0000000000D+00
  0.2209112120D+02  0.0000000000D+00
  0.6201070250D+01  0.0000000000D+00
  0.1935117680D+01  0.0000000000D+00
  0.6367357890D+00  0.0000000000D+00
  0.2324918408D+01  0.0000000000D+00
  0.6324303556D+00  0.0000000000D+00
  0.7905343475D-01  0.0000000000D+00
  0.3596197175D-01  0.1000000000D+01
 p    4 1.00
  0.2324918408D+01  0.8941508043D-02
  0.6324303556D+00  0.1410094640D+00
  0.7905343475D-01  0.9453636953D+00
  0.3596197175D-01  0.0000000000D+00
 p    4 1.00
  0.2324918408D+01  0.0000000000D+00
  0.6324303556D+00  0.0000000000D+00
  0.7905343475D-01  0.0000000000D+00
  0.3596197175D-01  0.1000000000D+01
 
[5D]
[7F]
[9G]
[MO]
 Ene=       -2.4775
 Spin= Alpha
 Occup=        1.0000
   1     -0.9991698604
   2     -0.0145202294
   3      0.0070855572
   4      0.0000000000
   5      0.0000000000
   6      0.0000000000
   7      0.0000000000
   8      0.0000000000
   9      0.0000000000
 Ene=       -0.1958
 Spin= Alpha
 Occup=        1.0000
   1     -0.1840549807
   2      0.3918256300
   3      0.6470309469
   4      0.0000000000
   5      0.0000000000
   6      0.0000000000
   7      0.0000000000
   8      0.0000000000
   9      0.0000000000
 Ene=        0.0373
 Spin= Alpha
 Occup=        0.0000
   1      0.0000000000
   2      0.0000000000
   3      0.0000000000
   4      0.0000000000
   5      0.0000000000
   6     -0.1599247118
   7      0.0000000000
   8      0.0000000000
   9     -0.8671583946
 Ene=        0.0373
 Spin= Alpha
 Occup=        0.0000
   1      0.0000000000
   2      0.0000000000
   3      0.0000000000
   4      0.0000000000
   5     -0.1599247118
   6      0.0000000000
   7      0.0000000000
   8     -0.8671583946
   9      0.0000000000
 Ene=        0.0373
 Spin= Alpha
 Occup=        0.0000
   1      0.0000000000
   2      0.0000000000
   3      0.0000000000
   4     -0.1599247118
   5      0.0000000000
   6      0.0000000000
   7     -0.8671583946
   8      0.0000000000
   9      0.0000000000
 Ene=        0.1967
 Spin= Alpha
 Occup=        0.0000
   1     -0.0816079757
   2     -2.3275281580
   3      2.2868643207
   4      0.0000000000
   5      0.0000000000
   6      0.0000000000
   7      0.0000000000
   8      0.0000000000
   9      0.0000000000
 Ene=        0.2058
 Spin= Alpha
 Occup=        0.0000
   1      0.0000000000
   2      0.0000000000
   3      0.0000000000
   4      0.0000000000
   5      0.0000000000
   6     -1.6667170250
   7      0.0000000000
   8      0.0000000000
   9      1.4323260360
 Ene=        0.2058
 Spin= Alpha
 Occup=        0.0000
   1      0.0000000000
   2      0.0000000000
   3      0.0000000000
   4      0.0000000000
   5     -1.6667170250
   6      0.0000000000
   7      0.0000000000
   8      1.4323260360
   9      0.0000000000
 Ene=        0.2058
 Spin= Alpha
 Occup=        0.0000
   1      0.0000000000
   2      0.0000000000
   3      0.0000000000
   4     -1.6667170250
   5      0.0000000000
   6      0.0000000000
   7      1.4323260360
   8      0.0000000000
   9      0.0000000000
 Ene=       -2.4611
 Spin= Beta
 Occup=        1.0000
   1     -0.9989504746
   2     -0.0170451918
   3      0.0079678462
   4      0.0000000000
   5      0.0000000000
   6      0.0000000000
   7      0.0000000000
   8      0.0000000000
   9      0.0000000000
 Ene=        0.0322
 Spin= Beta
 Occup=        0.0000
   1     -0.1996182755
   2     -0.1818869047
   3      1.1801635652
   4      0.0000000000
   5      0.0000000000
   6      0.0000000000
   7      0.0000000000
   8      0.0000000000
   9      0.0000000000
 Ene=        0.0715
 Spin= Beta
 Occup=        0.0000
   1      0.0000000000
   2      0.0000000000
   3      0.0000000000
   4      0.0000000000
   5      0.0000000000
   6      0.0752443602
   7      0.0000000000
   8      0.0000000000
   9     -1.0593404895
 Ene=        0.0715
 Spin= Beta
 Occup=        0.0000
   1      0.0000000000
   2      0.0000000000
   3      0.0000000000
   4      0.0000000000
   5      0.0752443602
   6      0.0000000000
   7      0.0000000000
   8     -1.0593404895
   9      0.0000000000
 Ene=        0.0715
 Spin= Beta
 Occup=        0.0000
   1      0.0000000000
   2      0.0000000000
   3      0.0000000000
   4      0.0752443602
   5      0.0000000000
   6      0.0000000000
   7     -1.0593404895
   8      0.0000000000
   9      0.0000000000
 Ene=        0.2371
 Spin= Beta
 Occup=        0.0000
   1      0.0335708335
   2      2.3532428908
   3     -2.0629101157
   4      0.0000000000
   5      0.0000000000
   6      0.0000000000
   7      0.0000000000
   8      0.0000000000
   9      0.0000000000
 Ene=        0.2332
 Spin= Beta
 Occup=        0.0000
   1      0.0000000000
   2      0.0000000000
   3      0.0000000000
   4      0.0000000000
   5      0.0000000000
   6     -1.6726804360
   7      0.0000000000
   8      0.0000000000
   9      1.2966569639
 Ene=        0.2332
 Spin= Beta
 Occup=        0.0000
   1      0.0000000000
   2      0.0000000000
   3      0.0000000000
   4      0.0000000000
   5     -1.6726804360
   6      0.0000000000
   7      0.0000000000
   8      1.2966569639
   9      0.0000000000
 Ene=        0.2332
 Spin= Beta
 Occup=        0.0000
   1      0.0000000000
   2      0.0000000000
   3      0.0000000000
   4     -1.6726804360
   5      0.0000000000
   6      0.0000000000
   7      1.2966569639
   8      0.0000000000
   9      0.0000000000
