**********************************************************************
                          MRCC program system
 **********************************************************************

                              Written by
     Mihaly Kallay, Peter R. Nagy, David Mester, Laszlo Gyevi-Nagy,
        Jozsef Csoka, P. Bernat Szabo, Zoltan Rolik, Gyula Samu,
     Jozsef Csontos, Bence Hegely, Adam Ganyecz, Istvan Ladjanszki,
       Lorant Szegedy, Bence Ladoczki, Klara Petrov, Mate Farkas,
                    Pal D. Mezei, and Reka A. Horvath

        Department of Physical Chemistry and Materials Science
            Budapest University of Technology and Economics
                  Budapest P.O.Box 91, H-1521 Hungary

                              www.mrcc.hu

                     Release date: August 28, 2023

 ************************ 2025-03-28 21:45:26 *************************
 Executing minp...

 Reading input from MINP...

 Input file:

basis=aCV7Z-FELLER
iface=cfour
uncontract=off
calc=CC(4)
ccprog=mrcc
mem=1950GB
core=corr
itol=18
scftol=13
cctol=6
ccmaxit=999
scfmaxit=9999
scfiguess=ao
scftype=UHF
#rohftype=semicanonical
rest=2
charge=+0
mult=3
refdet=serialno
1-3
4,5

symm=2
occ=2,0,0,0,0,1,1,1/2,0,0,0,0,0,0,1
geom
O

#Li 1 R
#R=3.065

#unit=angstroms

tprint=0.01
verbosity=3
#nstate=4


 Checking keyword combinations...

 Keywords:

 active=none
 agrid=ld0006-ld0590
 agrid_pssp=ld0006-ld0194
 agrid_pssp_sm=ld0006-ld0074
 basis=acv7z-feller
 basis_sm=none
 basopt=off
 bfbasis=none
 bfgsmem=10
 bfgstol=1.0d-3
 boysalg=jacobi
 bpcompo=0.985
 bpcompv=0.98
 bpdfo=0.985
 bpocc=0.985
 bppdo=0.985
 bppdv=0.98
 bpedo=0.985
 bpedv=0.98
 calc=cc(4)
 ccmaxit=999
 ccprog=mrcc
 ccsdalg=disk
 ccsdmkl=seq
 ccsdrest=off
 ccsdthreads=2
 cctol=6
 charge=+0
 cialg=disk
 ciguess=off
 cmpgrp=auto
 comprest=off
 coord_sys=ric
 core=corr
 corembed=off
 csapprox=off
 cvs=off
 dboc=off
 delocsomofact=
 dendec=cholesky
 dens=0
 denscorr=0
 dfalg=lineq
 dfbasis_cab=none
 dfbasis_cor=none
 dfbasis_scf=none
 dfbasis_scf_sm=none
 dfintran=ovirt
 dft=off
 dhexc=adc(2)
 diag=david
 docc=
 domrad=10.d0
 drpaalg=fit
 dual=off
 dual_df=off
 ecp=auto
 edisp=off
 edisp_embed=off
 embed=off
 epairestfact=off
 epairscale=1.d0
 etemp=300
 epert=none
 eps=
 espcharge=off
 excrad=0.d0
 excrad_fin=0.000000000D+00
 fitting=coulomb
 fmm=off
 fmmord=8
 fnonorb=
 freq=off
 gamma=1.d0
 gauss=spher
 geom=zmat
 gopt=off
 ghost=none
 gtol=7
 grdens=off
 grid=auto
 grid_sm=auto
 gridbatch_cos=2000
 grtol=10
 guido_ct=off
 hamilton=dc
 iface=cfour
 intalg=auto
 ip_ea=off
 itol=18
 laptol=1.d-2
 lccoporder=trffirst
 lcorthr=normal
 lccrest=off
 ldfgrad_tol=8
 lmp2dens=on
 lnoepso=0.d0
 lnoepsv=1e-6
 localcc=off
 localcorrsymm=off
 locintrf=disk
 mact=
 maxact=off
 maxdim=200
 maxex=0
 maxmicroit=100
 mcscfiguess=hf
 mem=1950gb
 mmprog=
 molden=on
 mpitasks=1
 mulmet=0
 mult=3
 nab=off
 nacto=0
 nactv=0
 naf_amp=3.16d-3
 naf_cor=off
 naf_f12=off
 naf_scf=off
 nafalg=albe
 nafdens=off
 naftyp=
 nchol=auto
 ndeps=1e-3
 nstate=1
 nsing=0
 nto=off
 ntrip=0
 num_grad=off
 occ=2,0,0,0,0,1,1,1/2,0,0,0,0,0,0,1
 occri=off
 oniom=off
 oniom_eechg=off
 oniom_pcm=off
 oniom_qcorr=off
 optalg=
 optmaxit=50
 optetol=1e-6
 optex=0
 optgtol=1e-4
 optstol=1e-3
 orblocc=off
 orbloce=off
 orbloco=off
 orblocv=off
 orblocguess=cholesky
 osveps=1e-3
 ovirt=off
 ovltol=1e-7
 ovosnorb=80.0
 pao_subsys_tol=1e-3
 pcm=off
 popul=off
 pressure=100000
 pssp=off
 ptfreq=0.0
 ptthreads=2
 qmreg=
 qmmm=off
 qro=off
 qscf=off
 redcost_exc=off
 redcost_tddft=off
 refdet=serialno
 rest=2
 rgrid=log3
 rism=off
 rohfcore=semicanonical
 rohftype=standard
 scfalg=auto
 scf_conv=auto
 scfdamp=0.0d0
 scfdamp_mode=off
 scfdamp_end=9999
 scfdamp_dampstep=0.d0
 scfdamp_dtol=0.0d0
 scfdamp_maxfact=0.0d0
 scfdamp_minfact=0.0d0
 scfdiis=on
 scfdiis_dtol=0.0d0
 scfdiis_end=9999
 scfdiis_start=2
 scfdiis_step=1
 scfdiis_watch=off
 scfdiis_wrange=10
 scfdiis_wlimit=5
 scfdiis_delmax=2
 scfdtol=14
 scfext=10
 scfguessdens=
 scfiguess=ao
 scfloc=off
 scflshift=0.20
 scflshift_end=8
 scflshift_dtol=0.0
 scflshift_gaptol=0.20
 scfmaxit=9999
 scftype=uhf
 scftol=13
 scspe=1.d0
 scsph=1.d0
 scsps=1.2d0
 scsps_t=1.2d0
 scspt=0.33333333333333
 scspt_t=0.33333333333333
 scspv=1.d0
 spairtol=1e-4
 sqmprog=
 subminp=top
 symm=2
 talg=occ
 temp=298.15
 test=off
 theodore=off
 tlmo=0.999
 tpao=0.94
 tprint=0.01
 uncontract=off
 unit=angs
 usedisk=2
 verbosity=3
 wpairtol=0.100000000E-05

 ************************ 2025-03-28 21:45:28 *************************
 Executing goldstone...

 Generation of CC equations in terms of H and T...
 Generation of antisymmetrized Goldstone diagrams...
 Number of diagrams in T^1 equations:    15
 Number of diagrams in T^2 equations:    38
 Number of diagrams in T^3 equations:    53
 Number of diagrams in T^4 equations:    74
 Translation of diagrams to factorized equations...
 Optimizing intermediate calculation...
 Number of floating-point operations per iteration step:   2.3310E+16
 Probable CPU time per iteration step (hours):       233098.84
 Required memory (Mbytes):       3429163.7
 Number of intermediates:                                 104
 Number of intermediates to be stored:                     44
 Length of intermediate file (Mbytes):        112049.5

 ************************ 2025-03-28 21:45:30 *************************
 Executing xmrcc...

 **********************************************************************
 CC(                     4 ) calculation


 Allocation of      1996800.0 Mbytes of memory...
 Number of spinorbitals:                   814
 Number of alpha electrons:                        5
 Number of beta electrons:                         3
 Spin multiplicity:                     2
 z-component of spin:  1.0
 Spatial symmetry:                      2
 Convergence criterion:  1.0E-06
 Construction of occupation graphs...
 Number of                     0 -fold excitations:                      1
 Number of                     1 -fold excitations:                    544
 Number of                     2 -fold excitations:                 451047
 Number of                     3 -fold excitations:              198762216
 Number of                     4 -fold excitations:            44298645014
 Total number of configurations:            44497858822
 Calculation of coupling coefficients...
 Length of intermediate file (Mbytes):         78646.6

 ======================================================================

 Memory requirements /Mbyte/:
               Minimal        Optimal
 Real*8:     964043.5297    964043.5297
 Integer:    399240.2907
 Total:     1363283.8204   1363283.8204


 ************************ 2025-03-29 01:25:46 *************************
 Executing goldstone...

 Generation of CC equations in terms of H and T...
 Generation of antisymmetrized Goldstone diagrams...
 Number of diagrams in T^1 equations:    15
 Number of diagrams in T^2 equations:    34
 Number of diagrams in T^3 equations:     2
 Translation of diagrams to factorized equations...
 Optimizing intermediate calculation...
 Number of floating-point operations per iteration step:   6.9257E+11
 Probable CPU time per iteration step (hours):            6.93
 Required memory (Mbytes):       3429163.7
 Number of intermediates:                                  49
 Number of intermediates to be stored:                     20
 Length of intermediate file (Mbytes):         52224.6

 ************************ 2025-03-29 01:25:46 *************************
 Executing xmrcc...

 **********************************************************************
 CC(2)(3) calculation


 Allocation of      1996800.0 Mbytes of memory...
 Number of spinorbitals:                   814
 Number of alpha electrons:                        5
 Number of beta electrons:                         3
 Spin multiplicity:                     2
 z-component of spin:  1.0
 Spatial symmetry:                      2
 Convergence criterion:  1.0E-06
 Construction of occupation graphs...
 Number of                     0 -fold excitations:                      1
 Number of                     1 -fold excitations:                    544
 Number of                     2 -fold excitations:                 451047
 Total number of configurations:                 451592
 Calculation of coupling coefficients...
 Length of intermediate file (Mbytes):         39305.4

 ======================================================================

 Spin case  1   Alpha:  0   Beta:  3
 Number of excitations:                1367805
 Spin case  2   Alpha:  1   Beta:  2
 Number of excitations:               61625270
 Spin case  3   Alpha:  2   Beta:  1
 Number of excitations:              122363455
 Spin case  4   Alpha:  3   Beta:  0
 Number of excitations:               13405686
 Number of                     3 -fold excitations:              198762216

 Memory requirements /Mbyte/:
               Minimal        Optimal
 Real*8:      26479.3398    210299.3883
 Integer:        35.8369
 Total:       26515.1767    210335.2251


 ************************ 2025-03-29 01:25:54 *************************
 Executing mrcc...

 **********************************************************************
 CCSD(T) calculation


 OpenMP parallel version is running.
 Number of CPU cores:   4
 Allocation of       210299.4 Mbytes of memory...
 Number of spinorbitals: 814
 Number of alpha electrons:  5
 Number of beta  electrons:  3
 Spin multiplicity: 3
 z-component of spin:  1.0
 Spatial symmetry: 2
 Convergence criterion:  1.0E-06
 Construction of occupation graphs...
 Number of 0-fold excitations: 1
 Number of 1-fold excitations: 544
 Number of 2-fold excitations: 451047
 Total number of determinants: 451592
 Calculation of coupling coefficients...
 Initial cluster amplitudes are generated.
 Length of intermediate file (Mbytes):         39305.4
 Reading integral list from unit 55...
 Sorting integrals...
 Sorting integrals...
 Sorting integrals...
 Sorting integrals...
 Energy of reference determinant [au]:     -74.515127424677
 Calculation of MP denominators...

 Starting CC iteration...
 ======================================================================
 Norm of residual vector:     3.50976077
 CPU time [min]:   109.320                   Wall time [min]:   108.789

 Iteration  1  CC energy:   -75.07247557  Energy decrease:   0.55734815
 ======================================================================
 Norm of residual vector:     1.48473921
 CPU time [min]:   130.725                   Wall time [min]:   129.223

 Iteration  2  CC energy:   -74.88206320  Energy decrease:   0.19041238
 ======================================================================
 Norm of residual vector:     0.38285021
 CPU time [min]:   152.420                   Wall time [min]:   149.889

 Iteration  3  CC energy:   -75.02570631  Energy decrease:   0.14364312
 ======================================================================
 Norm of residual vector:     0.25700171
 CPU time [min]:   174.194                   Wall time [min]:   170.816

 Iteration  4  CC energy:   -75.02636586  Energy decrease:   0.00065954
 ======================================================================
 Norm of residual vector:     0.10344613
 CPU time [min]:   195.681                   Wall time [min]:   191.350

 Iteration  5  CC energy:   -75.07405979  Energy decrease:   0.04769394
 ======================================================================
 Norm of residual vector:     0.05077959
 CPU time [min]:   217.440                   Wall time [min]:   212.338

 Iteration  6  CC energy:   -75.04498156  Energy decrease:   0.02907823
 ======================================================================
 Norm of residual vector:     0.04024071
 CPU time [min]:   239.314                   Wall time [min]:   233.193

 Iteration  7  CC energy:   -75.06177230  Energy decrease:   0.01679074
 ======================================================================
 Norm of residual vector:     0.00687959
 CPU time [min]:   260.794                   Wall time [min]:   253.689

 Iteration  8  CC energy:   -75.06154819  Energy decrease:   0.00022411
 ======================================================================
 Norm of residual vector:     0.00357576
 CPU time [min]:   283.423                   Wall time [min]:   275.459

 Iteration  9  CC energy:   -75.06075200  Energy decrease:   0.00079619
 ======================================================================
 Norm of residual vector:     0.00094797
 CPU time [min]:   306.212                   Wall time [min]:   297.515

 Iteration 10  CC energy:   -75.06037461  Energy decrease:   0.00037738
 ======================================================================
 Norm of residual vector:     0.00073574
 CPU time [min]:   328.290                   Wall time [min]:   318.645

 Iteration 11  CC energy:   -75.06069661  Energy decrease:   0.00032200
 ======================================================================
 Norm of residual vector:     0.00021569
 CPU time [min]:   349.797                   Wall time [min]:   339.181

 Iteration 12  CC energy:   -75.06062090  Energy decrease:   0.00007572
 ======================================================================
 Norm of residual vector:     0.00003496
 CPU time [min]:   371.242                   Wall time [min]:   359.680

 Iteration 13  CC energy:   -75.06061770  Energy decrease:   0.00000320
 ======================================================================
 Norm of residual vector:     0.00002107
 CPU time [min]:   394.035                   Wall time [min]:   381.200

 Iteration 14  CC energy:   -75.06062587  Energy decrease:   0.00000818
 ======================================================================
 Norm of residual vector:     0.00000565
 CPU time [min]:   416.018                   Wall time [min]:   402.546

 Iteration 15  CC energy:   -75.06062472  Energy decrease:   0.00000116
 ======================================================================
 Norm of residual vector:     0.00000148
 CPU time [min]:   437.473                   Wall time [min]:   423.060

 Iteration 16  CC energy:   -75.06062420  Energy decrease:   0.00000052
 ======================================================================
 Norm of residual vector:     0.00000064
 CPU time [min]:   459.029                   Wall time [min]:   443.696

 Iteration 17  CC energy:   -75.06062440  Energy decrease:   0.00000020
 ======================================================================

 Iteration has converged in 17 steps.

 Final results:
 Total CCSD energy [au]:                      -75.060624400597

 Perturbative corrections are calculated...
 ======================================================================
 Spin case  1   Alpha:  0   Beta:  3
 Number of excitations:        1367805
 CPU time [min]:   461.722                   Wall time [min]:   444.800
 ======================================================================
 Spin case  2   Alpha:  1   Beta:  2
 Number of excitations:        61625270
 CPU time [min]:   487.863                   Wall time [min]:   453.003
 ======================================================================
 Spin case  3   Alpha:  2   Beta:  1
 Number of excitations:        122363455
 CPU time [min]:   532.307                   Wall time [min]:   465.467
 ======================================================================
 Spin case  4   Alpha:  3   Beta:  0
 Number of excitations:        13405686
 CPU time [min]:   539.719                   Wall time [min]:   468.126
 ======================================================================
 Number of 3-fold excitations: 198762216


 CPU time [min]:   539.730                   Wall time [min]:   468.130

 Total CCSD[T] energy [au]:                   -75.068844549641
 Total CCSD(T) energy [au]:                   -75.058428312838

 Dominant cluster amplitudes
 Printing threshold:  1.00E-02

    1.000000  Reference determinant
   -0.014632  2b -> 17b
    0.011168  2b -> 18b
   -0.028777  2b -> 29b
    0.011137  2b -> 33b
   -0.024765  2b -> 53b
   -0.011821  2b -> 86b
    1.330545  3b -> 6b
   -0.654384  3b -> 10b
   -0.280395  3b -> 26b
   -0.099494  3b -> 51b
    0.028595  3b -> 91b
    0.016494  2a -> 33a
    0.019999  2a -> 58a
   -0.011884  2a -> 90a
    0.010804  3a -> 10a
    0.011900  3a -> 48a
    0.010143  3a -> 74a
   -0.012823  4a -> 27a
   -0.011198  4a -> 52a
   -0.012827  5a -> 8a
   -0.030196  5a -> 12a
   -0.031904  5a -> 28a
    0.013490  5a -> 50a
   -0.017482  5a -> 55a
    0.011043  5a -> 76a
   -0.010931  2b 3b -> 5b 16b
   -0.013344  2b 3b -> 10b 18b
    0.014962  2b 3b -> 18b 26b
   -0.010275  2b 3b -> 4b 30b
   -0.015520  2b 3b -> 7b 30b
    0.010364  2b 3b -> 11b 30b
   -0.022038  2b 3b -> 5b 32b
    0.010029  2b 3b -> 10b 43b
    0.013112  2b 3b -> 26b 43b
   -0.010511  2b 3b -> 43b 51b
   -0.013744  2b 3b -> 7b 54b
   -0.019539  2b 3b -> 5b 57b
    0.010115  2b 3b -> 5b 89b
   -0.010031  2a 2b -> 40a 43b
   -0.014302  3a 3b -> 18a 18b
    0.011167  3a 3b -> 40a 18b
   -0.015785  3a 3b -> 29a 33b
   -0.014036  3a 3b -> 53a 33b
    0.011376  3a 3b -> 18a 43b
   -0.011628  3a 3b -> 40a 43b
   -0.015462  3a 3b -> 29a 58b
   -0.018464  3a 3b -> 53a 58b
    0.010180  3a 3b -> 86a 58b
    0.011058  3a 3b -> 53a 90b
   -0.010116  3a 3b -> 86a 90b
   -0.015886  3a 3b -> 32a 32b
   -0.014479  3a 3b -> 57a 32b
   -0.015191  3a 3b -> 32a 57b
   -0.018540  3a 3b -> 57a 57b
    0.010377  3a 3b -> 89a 57b
    0.010917  3a 3b -> 57a 89b
   -0.010115  3a 3b -> 89a 89b
   -0.015832  3a 3b -> 30a 30b
   -0.014094  3a 3b -> 54a 30b
   -0.015534  3a 3b -> 30a 54b
   -0.018517  3a 3b -> 54a 54b
    0.010197  3a 3b -> 87a 54b
    0.011094  3a 3b -> 54a 87b
   -0.010119  3a 3b -> 87a 87b
    0.014902  3a 3b -> 10a 6b
    0.016200  3a 3b -> 26a 6b
   -0.013690  3a 3b -> 6a 10b
   -0.033454  3a 3b -> 10a 10b
   -0.038056  3a 3b -> 26a 10b
   -0.022387  3a 3b -> 51a 10b
   -0.015138  3a 3b -> 6a 26b
   -0.038563  3a 3b -> 10a 26b
   -0.048239  3a 3b -> 26a 26b
   -0.033103  3a 3b -> 51a 26b
    0.010905  3a 3b -> 91a 26b
   -0.023904  3a 3b -> 10a 51b
   -0.034324  3a 3b -> 26a 51b
   -0.030608  3a 3b -> 51a 51b
    0.014523  3a 3b -> 91a 51b
    0.012092  3a 3b -> 26a 91b
    0.014950  3a 3b -> 51a 91b
   -0.012595  3a 3b -> 91a 91b
    0.011584  2a 2b -> 28a 5b
    0.013921  3a 3b -> 12a 5b
    0.012137  3a 3b -> 28a 5b
   -0.011543  5a 3b -> 33a 32b
   -0.010864  5a 3b -> 58a 32b
   -0.010588  5a 3b -> 33a 57b
   -0.013041  5a 3b -> 58a 57b
   -0.011170  5a 3b -> 31a 30b
   -0.010296  5a 3b -> 56a 30b
   -0.010647  5a 3b -> 31a 54b
   -0.012910  5a 3b -> 56a 54b
   -0.011131  5a 3b -> 32a 33b
   -0.010253  5a 3b -> 57a 33b
   -0.010577  5a 3b -> 32a 58b
   -0.012867  5a 3b -> 57a 58b
    0.011950  5a 3b -> 6a 5b
    0.023751  5a 3b -> 10a 5b
    0.018630  5a 3b -> 26a 5b
   -0.011898  5a 3b -> 48a 5b
   -0.010876  5a 3b -> 74a 5b
    0.010508  5a 3b -> 12a 6b
    0.012490  5a 3b -> 28a 6b
   -0.023191  5a 3b -> 12a 10b
   -0.028706  5a 3b -> 28a 10b
   -0.018342  5a 3b -> 55a 10b
   -0.026082  5a 3b -> 12a 26b
   -0.035169  5a 3b -> 28a 26b
   -0.025686  5a 3b -> 55a 26b
   -0.016046  5a 3b -> 12a 51b
   -0.024531  5a 3b -> 28a 51b
   -0.022466  5a 3b -> 55a 51b
    0.011250  5a 3b -> 94a 51b
    0.011121  5a 3b -> 55a 91b
   -0.011216  4a 3b -> 31a 32b
   -0.010425  4a 3b -> 56a 32b
   -0.010502  4a 3b -> 31a 57b
   -0.012832  4a 3b -> 56a 57b
    0.015587  4a 3b -> 10a 7b
    0.011989  4a 3b -> 26a 7b
   -0.012404  4a 3b -> 10a 11b
   -0.010571  4a 3b -> 26a 11b
    0.010588  4a 3b -> 11a 6b
    0.012230  4a 3b -> 27a 6b
   -0.023443  4a 3b -> 11a 10b
   -0.028199  4a 3b -> 27a 10b
   -0.017729  4a 3b -> 52a 10b
   -0.026526  4a 3b -> 11a 26b
   -0.034735  4a 3b -> 27a 26b
   -0.025012  4a 3b -> 52a 26b
   -0.016496  4a 3b -> 11a 51b
   -0.024432  4a 3b -> 27a 51b
   -0.022066  4a 3b -> 52a 51b
    0.011080  4a 3b -> 92a 51b
    0.011050  4a 3b -> 52a 91b
   -0.012344  2a 3b -> 9a 10b
    0.021023  2a 3b -> 18a 10b
   -0.017166  2a 3b -> 40a 10b
   -0.015038  2a 3b -> 9a 26b
    0.026993  2a 3b -> 18a 26b
   -0.024766  2a 3b -> 40a 26b
    0.010280  2a 3b -> 93a 26b
   -0.010139  2a 3b -> 9a 51b
    0.019687  2a 3b -> 18a 51b
   -0.021966  2a 3b -> 40a 51b
    0.012380  2a 3b -> 93a 51b
    0.010105  2a 3b -> 40a 91b
   -0.014282  2a 3b -> 32a 5b
   -0.019150  2a 3b -> 57a 5b
    0.011946  2a 3b -> 89a 5b
   -0.019786  3a 2b -> 32a 5b
   -0.022088  3a 2b -> 57a 5b
    0.012972  3a 2b -> 89a 5b
   -0.010482  2a 3b -> 30a 7b
   -0.013355  2a 3b -> 54a 7b
   -0.014191  3a 2b -> 30a 7b
   -0.015236  3a 2b -> 54a 7b
    0.011061  3a 2b -> 54a 11b
    0.010882  2a 3b -> 26a 18b
    0.011634  3a 2b -> 26a 18b
   -0.011203  3a 2b -> 26a 43b
   -0.010805  3a 2b -> 51a 43b
    0.014368  4a 2b -> 29a 7b
    0.015299  4a 2b -> 53a 7b
   -0.011103  4a 2b -> 53a 11b
   -0.020416  4a 2b -> 31a 5b
   -0.022721  4a 2b -> 56a 5b
    0.013248  4a 2b -> 88a 5b
    0.011450  4a 2b -> 27a 18b
   -0.011054  4a 2b -> 27a 43b
   -0.010819  4a 2b -> 52a 43b
   -0.013027  5a 2b -> 18a 5b
   -0.023173  5a 2b -> 33a 5b
   -0.025971  5a 2b -> 58a 5b
    0.015379  5a 2b -> 90a 5b
   -0.010248  5a 2b -> 56a 4b
   -0.014547  5a 2b -> 31a 7b
   -0.015823  5a 2b -> 56a 7b
    0.011463  5a 2b -> 56a 11b
    0.011583  5a 2b -> 28a 18b
   -0.011149  5a 2b -> 28a 43b
   -0.011017  5a 2b -> 55a 43b
   -0.011450  4a 5a -> 27a 28a
   -0.011247  3a 5a -> 26a 28a
   -0.011131  3a 4a -> 26a 27a
   -0.010442  3a 4a -> 53a 54a

 ************************ 2025-03-29 09:14:28 *************************
 Executing goldstone...

 Generation of CC equations in terms of H and T...
 Generation of antisymmetrized Goldstone diagrams...
 Number of diagrams in T^1 equations:    15
 Number of diagrams in T^2 equations:    38
 Number of diagrams in T^3 equations:    50
 Number of diagrams in T^4 equations:     5
 Translation of diagrams to factorized equations...
 Optimizing intermediate calculation...
 Number of floating-point operations per iteration step:   7.5104E+14
 Probable CPU time per iteration step (hours):         7510.37
 Required memory (Mbytes):       3429163.7
 Number of intermediates:                                  80
 Number of intermediates to be stored:                     32
 Length of intermediate file (Mbytes):         53382.4

 ************************ 2025-03-29 09:14:30 *************************
 Executing xmrcc...

 **********************************************************************
 CC(3)(4) calculation


 Allocation of      1996800.0 Mbytes of memory...
 Number of spinorbitals:                   814
 Number of alpha electrons:                        5
 Number of beta electrons:                         3
 Spin multiplicity:                     2
 z-component of spin:  1.0
 Spatial symmetry:                      2
 Convergence criterion:  1.0E-06
 Construction of occupation graphs...
 Number of                     0 -fold excitations:                      1
 Number of                     1 -fold excitations:                    544
 Number of                     2 -fold excitations:                 451047
 Number of                     3 -fold excitations:              198762216
 Total number of configurations:              199213808
 Calculation of coupling coefficients...
 Length of intermediate file (Mbytes):         40173.4

 ======================================================================

 Spin case  1   Alpha:  1   Beta:  3
 Number of excitations:             2741611336
 Spin case  2   Alpha:  2   Beta:  2
 Number of excitations:            24610760337
 Spin case  3   Alpha:  3   Beta:  1
 Number of excitations:            16276773388
 Spin case  4   Alpha:  4   Beta:  0
 Number of excitations:              669499953
 Number of                     4 -fold excitations:            44298645014

 Memory requirements /Mbyte/:
               Minimal        Optimal
 Real*8:      95284.8098    209352.5262
 Integer:      5342.7277
 Total:      100627.5375    214695.2538


 ************************ 2025-03-29 09:24:37 *************************
 Executing mrcc...

 **********************************************************************
 CCSDT(Q) calculation


 OpenMP parallel version is running.
 Number of CPU cores:   4
 Allocation of       209352.5 Mbytes of memory...
 Number of spinorbitals: 814
 Number of alpha electrons:  5
 Number of beta  electrons:  3
 Spin multiplicity: 3
 z-component of spin:  1.0
 Spatial symmetry: 2
 Convergence criterion:  1.0E-06
 Construction of occupation graphs...
 Number of 0-fold excitations: 1
 Number of 1-fold excitations: 544
 Number of 2-fold excitations: 451047
 Number of 3-fold excitations: 198762216
 Total number of determinants: 199213808
 Calculation of coupling coefficients...
 Initial cluster amplitudes are read from unit 16.
 Length of intermediate file (Mbytes):         40173.4
 Reading integral list from unit 55...
 Sorting integrals...
 Sorting integrals...
 Sorting integrals...
 Sorting integrals...
 Energy of reference determinant [au]:     -74.515127424677
 Calculation of MP denominators...

 Starting CC iteration...
 ======================================================================
 Norm of residual vector:     0.46516454
 CPU time [min]:   298.161                   Wall time [min]:   190.217

 Iteration  1  CC energy:   -75.06062442  Energy decrease:   0.00000002
 ======================================================================
 Norm of residual vector:     0.05950801
 CPU time [min]:   496.821                   Wall time [min]:   277.408

 Iteration  2  CC energy:   -75.06435535  Energy decrease:   0.00373093
 ======================================================================
 Norm of residual vector:     0.02157040
 CPU time [min]:   700.237                   Wall time [min]:   364.827

 Iteration  3  CC energy:   -75.06442823  Energy decrease:   0.00007288
 ======================================================================
 Norm of residual vector:     0.00695204
 CPU time [min]:   906.254                   Wall time [min]:   456.080

 Iteration  4  CC energy:   -75.06505445  Energy decrease:   0.00062622
 ======================================================================
 Norm of residual vector:     0.00520769
 CPU time [min]:  1107.120                   Wall time [min]:   543.846

 Iteration  5  CC energy:   -75.06523636  Energy decrease:   0.00018191
 ======================================================================
 Norm of residual vector:     0.00266699
 CPU time [min]:  1350.688                   Wall time [min]:   647.573

 Iteration  6  CC energy:   -75.06533690  Energy decrease:   0.00010054
 ======================================================================
 Norm of residual vector:     0.00140619
 CPU time [min]:  1594.286                   Wall time [min]:   750.940

 Iteration  7  CC energy:   -75.06537721  Energy decrease:   0.00004031
 ======================================================================
 Norm of residual vector:     0.00069188
 CPU time [min]:  1836.482                   Wall time [min]:   853.575

 Iteration  8  CC energy:   -75.06539527  Energy decrease:   0.00001806
 ======================================================================
 Norm of residual vector:     0.00032610
 CPU time [min]:  2041.295                   Wall time [min]:   945.907

 Iteration  9  CC energy:   -75.06538935  Energy decrease:   0.00000592
 ======================================================================
 Norm of residual vector:     0.00014874
 CPU time [min]:  2250.604                   Wall time [min]:  1037.861

 Iteration 10  CC energy:   -75.06538531  Energy decrease:   0.00000404
 ======================================================================
 Norm of residual vector:     0.00005535
 CPU time [min]:  2457.592                   Wall time [min]:  1129.307

 Iteration 11  CC energy:   -75.06538472  Energy decrease:   0.00000059
 ======================================================================
 Norm of residual vector:     0.00002325
 CPU time [min]:  2661.318                   Wall time [min]:  1219.141

 Iteration 12  CC energy:   -75.06538465  Energy decrease:   0.00000007
 ======================================================================
 Norm of residual vector:     0.00000953
 CPU time [min]:  2863.727                   Wall time [min]:  1306.566

 Iteration 13  CC energy:   -75.06538491  Energy decrease:   0.00000027
 ======================================================================
 Norm of residual vector:     0.00000395
 CPU time [min]:  3069.207                   Wall time [min]:  1394.818

 Iteration 14  CC energy:   -75.06538497  Energy decrease:   0.00000006
 ======================================================================
 Norm of residual vector:     0.00000153
 CPU time [min]:  3275.177                   Wall time [min]:  1486.371

 Iteration 15  CC energy:   -75.06538495  Energy decrease:   0.00000002
 ======================================================================
 Norm of residual vector:     0.00000059
 CPU time [min]:  3481.229                   Wall time [min]:  1574.847

 Iteration 16  CC energy:   -75.06538495  Energy decrease:   4.2290E-09
 ======================================================================

 Iteration has converged in 16 steps.

 Final results:
 Total CCSDT energy [au]:                     -75.065384945617

 Perturbative corrections are calculated...
 ======================================================================
 Spin case  1   Alpha:  1   Beta:  3
 Number of excitations:        2741611336
