Starting run at: Mon 13 Apr 2026 07:33:59 PM EDT
 **********************************************************************
                          MRCC program system
 **********************************************************************
 
                              Written by
     Mihaly Kallay, Peter R. Nagy, David Mester, Laszlo Gyevi-Nagy,
        Jozsef Csoka, P. Bernat Szabo, Zoltan Rolik, Gyula Samu,
      Bence Hegely, Bence Ladoczki, Klara Petrov, Jozsef Csontos,
     Adam Ganyecz, Istvan Ladjanszki, Lorant Szegedy, Mate Farkas,
          Pal D. Mezei, Reka A. Horvath, and Balazs D. Lorincz
 
        Department of Physical Chemistry and Materials Science
            Budapest University of Technology and Economics
                  Budapest P.O.Box 91, H-1521 Hungary
 
                              www.mrcc.hu
 
                            Version: 25.1.1

 ************************ 2026-04-13 19:34:00 *************************
 Executing minp...

 Reading input from MINP...
 
 Input file:
 
basis=d-aug-cc-pwCVDZ
iface=cfour
uncontract=off
calc=CC(8)
ccprog=mrcc
mem=325GB
core=corr
itol=18
scftol=13
cctol=10
ccmaxit=999
scfmaxit=9999
scfiguess=ao
scftype=UHF
#rohftype=semicanonical
rest=2
charge=+0
mult=3
refdet=serialno
1-3
4,5

symm=4
occ=2,0,0,0,0,1,1,1/2,0,0,0,0,0,0,1
geom
O

#Li 1 R
#R=3.065

#unit=angstroms

tprint=0.01
verbosity=3
#nstate=4
 
 
 Checking keyword combinations...
 
 Keywords:
 
 active=none
 agrid=ld0006-ld0590
 agrid_pssp=ld0006-ld0194
 agrid_pssp_sm=ld0006-ld0074
 basis=d-aug-cc-pwcvdz
 basis_sm=none
 basopt=off
 bfbasis=none
 bfgsmem=10
 bfgstol=1.0d-3
 boysalg=jacobi
 bpcompo=0.985
 bpcompv=0.98
 bpdfo=0.985
 bpocc=0.985
 bppdo=0.985
 bppdv=0.98
 bpedo=0.985
 bpedv=0.98
 bp_subsyso=0.95
 bp_subsysv=0.95
 cabscorr=off
 cabsdual=off
 calc=cc(8)
 ccmaxit=999
 ccprog=mrcc
 ccsdalg=disk
 ccsdmkl=seq
 ccsdrest=off
 ccsdthreads=2
 cctol=10
 charge=+0
 cialg=disk
 ciguess=off
 cmpgrp=auto
 comprest=off
 coord_sys=ric
 core=corr
 corembed=off
 csapprox=off
 cvs=off
 dboc=off
 deltaf12=off
 delocsomofact=
 dendec=cholesky
 dens=0
 denscorr=0
 dfalg=lineq
 dfbasis_cab=none
 dfbasis_cor=none
 dfbasis_scf=none
 dfbasis_scf_sm=auto
 dfintran=ovirt
 dft=off
 dhexc=adc(2)
 diag=david
 docc=
 domrad=10.d0
 drpaalg=fit
 dual=off
 dual_df=off
 dyson=off
 ecp=auto
 edisp=off
 edisp_embed=off
 embed=off
 epairestfact=off
 epairscale=1.d0
 etemp=300
 epert=none
 eps=
 espcharge=off
 excrad=0.d0
 excrad_f12=0.d0
 excrad_fin=0.000000000D+00
 fastdbbsc=v2
 fitting=coulomb
 fmm=off
 fmmord=8
 fnonorb=
 freq=off
 gamma=1.d0
 gauss=spher
 geom=zmat
 gopt=off
 ghost=none
 gtol=7
 grdens=off
 grid=auto
 grid_sm=auto
 gridbatch_cos=2000
 grtol=10
 guido_ct=off
 hamilton=dc
 iface=cfour
 incore=off
 intalg=auto
 ip_ea=off
 itol=18
 laptol=1.d-2
 lccoporder=trffirst
 lcorthr=normal
 lccrest=off
 ldfgrad_tol=8
 lmp2dens=on
 lnoepso=0.d0
 lnoepsv=1e-6
 localcc=off
 localcorrsymm=off
 locintrf=disk
 mact=
 maxact=off
 maxdim=200
 maxex=0
 maxmicroit=100
 mcscfiguess=hf
 mem=325gb
 mmprog=
 molden=on
 mp2ongrid=off
 mpitasks=1
 mulmet=0
 mult=3
 nab=off
 nacto=0
 nactv=0
 naf_amp=3.16d-3
 naf_cor=off
 naf_f12=off
 naf_scf=off
 nafalg=albe
 nafdens=off
 naftyp=
 nchol=auto
 ndeps=1e-3
 nstate=1
 nsing=0
 nto=off
 ntrip=0
 num_grad=off
 occ=2,0,0,0,0,1,1,1/2,0,0,0,0,0,0,1
 occri=off
 oniom=off
 oniom_eechg=off
 oniom_pcm=off
 oniom_qcorr=off
 optalg=
 optmaxit=50
 optetol=1e-6
 optex=0
 optgtol=1e-4
 optstol=1e-3
 orblocc=off
 orbloce=off
 orbloco=off
 orblocv=off
 orblocguess=cholesky
 osveps=1e-3
 ovirt=off
 ovltol=1e-7
 ovosnorb=80.0
 pao_subsys_tol=1e-3
 pao_tol=1e-3
 pcm=off
 popul=off
 pressure=100000
 pssp=off
 ptfreq=0.0
 ptthreads=2
 qmreg=
 qmmm=off
 qro=off
 qscf=off
 redcost_exc=off
 redcost_tddft=off
 refdet=serialno
 rest=2
 rgrid=log3
 rism=off
 rohfcore=semicanonical
 rohftype=standard
 scfalg=auto
 scf_conv=auto
 scfdamp=0.0d0
 scfdamp_mode=off
 scfdamp_end=9999
 scfdamp_dampstep=0.d0
 scfdamp_dtol=0.0d0
 scfdamp_maxfact=0.0d0
 scfdamp_minfact=0.0d0
 scfdiis=on
 scfdiis_dtol=0.0d0
 scfdiis_end=9999
 scfdiis_start=2
 scfdiis_step=1
 scfdiis_watch=off
 scfdiis_wrange=10
 scfdiis_wlimit=5
 scfdiis_delmax=2
 scfdtol=14
 scfext=10
 scfguessdens=
 scfiguess=ao
 scfloc=off
 scflshift=0.20
 scflshift_end=8
 scflshift_dtol=0.0
 scflshift_gaptol=0.20
 scfmaxit=9999
 scftype=uhf
 scftol=13
 scspe=1.d0
 scsph=1.d0
 scsps=1.2d0
 scsps_t=1.2d0
 scspt=0.33333333333333
 scspt_t=0.33333333333333
 scspv=1.d0
 spairtol=1e-4
 sqmprog=
 subminp=top
 subsys_bopu=on
 symm=4
 talg=occ
 temp=298.15
 test=off
 theodore=off
 tlmo=0.999
 tpao=0.94
 tprint=0.01
 uncontract=off
 unit=angs
 usedisk=2
 verbosity=3
 wpairtol=0.100000000E-05
 ispstart=
 ispend=

 ************************ 2026-04-13 19:34:00 *************************
 Executing goldstone...

 Generation of CC equations in terms of H and T...
 Generation of antisymmetrized Goldstone diagrams...
 Number of diagrams in T^1 equations:    15
 Number of diagrams in T^2 equations:    38
 Number of diagrams in T^3 equations:    54
 Number of diagrams in T^4 equations:    81
 Number of diagrams in T^5 equations:   106
 Number of diagrams in T^6 equations:   142
 Number of diagrams in T^7 equations:   175
 Number of diagrams in T^8 equations:   215
 Translation of diagrams to factorized equations...
 Optimizing intermediate calculation...
 Number of floating-point operations per iteration step:   4.2089E+14
 Probable CPU time per iteration step (hours):         4208.91
 Required memory (Mbytes):        532935.0
 Number of intermediates:                                 304
 Number of intermediates to be stored:                    107
 Length of intermediate file (Mbytes):         33066.8

 ************************ 2026-04-13 19:34:01 *************************
 Executing xmrcc...

 **********************************************************************
 CC(                     8 ) calculation 
 
 
 Allocation of       332800.0 Mbytes of memory...
 Number of spinorbitals:                    72
 Number of alpha electrons:                        5
 Number of beta electrons:                         3
 Spin multiplicity:                     2
 z-component of spin:  1.0
 Spatial symmetry:                      4
 Convergence criterion:  1.0E-10
 Construction of occupation graphs...
 Number of                     0 -fold excitations:                      1
 Number of                     1 -fold excitations:                     56
 Number of                     2 -fold excitations:                   3084
 Number of                     3 -fold excitations:                  96218
 Number of                     4 -fold excitations:                1603297
 Number of                     5 -fold excitations:               14041338
 Number of                     6 -fold excitations:               63929572
 Number of                     7 -fold excitations:              140949044
 Number of                     8 -fold excitations:              115875270
 Total number of configurations:              336497880
 Calculation of coupling coefficients...
 Length of intermediate file (Mbytes):         17408.3
 
 ======================================================================
 
 Memory requirements /Mbyte/: 
               Minimal        Optimal
 Real*8:     325051.6347    325051.6347
 Integer:       150.3647
 Total:      325201.9993    325201.9993
 

 ************************ 2026-04-13 19:34:07 *************************
 Executing goldstone...

 Generation of CC equations in terms of H and T...
 Generation of antisymmetrized Goldstone diagrams...
 Number of diagrams in T^1 equations:    15
 Number of diagrams in T^2 equations:    34
 Number of diagrams in T^3 equations:     2
 Translation of diagrams to factorized equations...
 Optimizing intermediate calculation...
 Number of floating-point operations per iteration step:   3.2276E+07
 Probable CPU time per iteration step (hours):            0.00
 Required memory (Mbytes):           140.9
 Number of intermediates:                                  49
 Number of intermediates to be stored:                     20
 Length of intermediate file (Mbytes):             3.2

 ************************ 2026-04-13 19:34:07 *************************
 Executing xmrcc...

 **********************************************************************
 CC(2)(3) calculation 
 
 
 Allocation of       332800.0 Mbytes of memory...
 Number of spinorbitals:                    72
 Number of alpha electrons:                        5
 Number of beta electrons:                         3
 Spin multiplicity:                     2
 z-component of spin:  1.0
 Spatial symmetry:                      4
 Convergence criterion:  1.0E-10
 Construction of occupation graphs...
 Number of                     0 -fold excitations:                      1
 Number of                     1 -fold excitations:                     56
 Number of                     2 -fold excitations:                   3084
 Total number of configurations:                   3141
 Calculation of coupling coefficients...
 Length of intermediate file (Mbytes):             2.8
 
 ======================================================================
 
 Spin case  1   Alpha:  0   Beta:  3
 Number of excitations:                    690
 Spin case  2   Alpha:  1   Beta:  2
 Number of excitations:                  31486
 Spin case  3   Alpha:  2   Beta:  1
 Number of excitations:                  58446
 Spin case  4   Alpha:  3   Beta:  0
 Number of excitations:                   5596
 Number of                     3 -fold excitations:                  96218
 
 Memory requirements /Mbyte/: 
               Minimal        Optimal
 Real*8:         23.0993        23.0993
 Integer:        26.3729
 Total:          49.4721        49.4721
 

 ************************ 2026-04-13 19:34:07 *************************
 Executing mrcc...

 **********************************************************************
 CCSD(T) calculation                                                    
 
 
 OpenMP parallel version is running.
 Number of CPU cores:   4
 Allocation of           23.1 Mbytes of memory...
 Number of spinorbitals:  72
 Number of alpha electrons:  5
 Number of beta  electrons:  3
 Spin multiplicity: 3
 z-component of spin:  1.0
 Spatial symmetry: 4
 Convergence criterion:  1.0E-10
 Construction of occupation graphs...
 Number of 0-fold excitations: 1
 Number of 1-fold excitations: 56
 Number of 2-fold excitations: 3084
 Total number of determinants: 3141
 Calculation of coupling coefficients...
 Initial cluster amplitudes are generated.
 Length of intermediate file (Mbytes):       2.8
 Reading integral list from unit 55...
 Sorting integrals...
 Sorting integrals...
 Sorting integrals...
 Sorting integrals...
 Energy of reference determinant [au]:     -74.787686087594
 Calculation of MP denominators...
 
 Starting CC iteration...
 ==============================================================================
 Norm of residual vector:     1.78118386
 CPU time [hr]:     0.001                          Wall time [hr]:     0.000
 
 Iteration  1  CC energy:   -74.93683485          Energy decrease:   0.14914877
 Step       1  CC energy:   -74.936834853289184   Energy change  :   0.14914877
 ==============================================================================
 Norm of residual vector:     0.13962016
 CPU time [hr]:     0.001                          Wall time [hr]:     0.000
 
 Iteration  2  CC energy:   -74.95127478          Energy decrease:   0.01443993
 Step       2  CC energy:   -74.951274779171797   Energy change  :   0.01443993
 ==============================================================================
 Norm of residual vector:     0.02875702
 CPU time [hr]:     0.001                          Wall time [hr]:     0.000
 
 Iteration  3  CC energy:   -74.95371343          Energy decrease:   0.00243866
 Step       3  CC energy:   -74.953713434307318   Energy change  :   0.00243866
 ==============================================================================
 Norm of residual vector:     0.00943233
 CPU time [hr]:     0.001                          Wall time [hr]:     0.000
 
 Iteration  4  CC energy:   -74.95409946          Energy decrease:   0.00038603
 Step       4  CC energy:   -74.954099462395135   Energy change  :   0.00038603
 ==============================================================================
 Norm of residual vector:     0.00395211
 CPU time [hr]:     0.001                          Wall time [hr]:     0.000
 
 Iteration  5  CC energy:   -74.95412317          Energy decrease:   0.00002371
 Step       5  CC energy:   -74.954123171195548   Energy change  :   0.00002371
 ==============================================================================
 Norm of residual vector:     0.00140488
 CPU time [hr]:     0.001                          Wall time [hr]:     0.000
 
 Iteration  6  CC energy:   -74.95413293          Energy decrease:   0.00000976
 Step       6  CC energy:   -74.954132928246935   Energy change  :   0.00000976
 ==============================================================================
 Norm of residual vector:     0.00052178
 CPU time [hr]:     0.001                          Wall time [hr]:     0.000
 
 Iteration  7  CC energy:   -74.95414393          Energy decrease:   0.00001101
 Step       7  CC energy:   -74.954143934117909   Energy change  :   0.00001101
 ==============================================================================
 Norm of residual vector:     0.00017572
 CPU time [hr]:     0.001                          Wall time [hr]:     0.000
 
 Iteration  8  CC energy:   -74.95414611          Energy decrease:   0.00000217
 Step       8  CC energy:   -74.954146108531305   Energy change  :   0.00000217
 ==============================================================================
 Norm of residual vector:     0.00006198
 CPU time [hr]:     0.002                          Wall time [hr]:     0.000
 
 Iteration  9  CC energy:   -74.95414571          Energy decrease:   0.00000040
 Step       9  CC energy:   -74.954145710161242   Energy change  :   0.00000040
 ==============================================================================
 Norm of residual vector:     0.00002253
 CPU time [hr]:     0.002                          Wall time [hr]:     0.000
 
 Iteration 10  CC energy:   -74.95414535          Energy decrease:   0.00000036
 Step      10  CC energy:   -74.954145353676637   Energy change  :   0.00000036
 ==============================================================================
 Norm of residual vector:     0.00000813
 CPU time [hr]:     0.002                          Wall time [hr]:     0.001
 
 Iteration 11  CC energy:   -74.95414531          Energy decrease:   0.00000005
 Step      11  CC energy:   -74.954145305270302   Energy change  :   0.00000005
 ==============================================================================
 Norm of residual vector:     0.00000301
 CPU time [hr]:     0.002                          Wall time [hr]:     0.001
 
 Iteration 12  CC energy:   -74.95414533          Energy decrease:   0.00000002
 Step      12  CC energy:   -74.954145326628606   Energy change  :   0.00000002
 ==============================================================================
 Norm of residual vector:     0.00000109
 CPU time [hr]:     0.002                          Wall time [hr]:     0.001
 
 Iteration 13  CC energy:   -74.95414533          Energy decrease:   0.00000001
 Step      13  CC energy:   -74.954145333731972   Energy change  :   0.00000001
 ==============================================================================
 Norm of residual vector:     0.00000034
 CPU time [hr]:     0.002                          Wall time [hr]:     0.001
 
 Iteration 14  CC energy:   -74.95414533          Energy decrease:   6.0908E-11
 Step      14  CC energy:   -74.954145333671065   Energy change  :   6.0908E-11
 ==============================================================================
 Norm of residual vector:     0.00000009
 CPU time [hr]:     0.002                          Wall time [hr]:     0.001
 
 Iteration 15  CC energy:   -74.95414533          Energy decrease:   6.1475E-10
 Step      15  CC energy:   -74.954145334285812   Energy change  :   6.1475E-10
 ==============================================================================
 Norm of residual vector:     0.00000003
 CPU time [hr]:     0.002                          Wall time [hr]:     0.001
 
 Iteration 16  CC energy:   -74.95414533          Energy decrease:   2.3577E-10
 Step      16  CC energy:   -74.954145334521584   Energy change  :   2.3577E-10
 ==============================================================================
 Norm of residual vector:     0.00000001
 CPU time [hr]:     0.002                          Wall time [hr]:     0.001
 
 Iteration 17  CC energy:   -74.95414533          Energy decrease:   1.1514E-10
 Step      17  CC energy:   -74.954145334406448   Energy change  :   1.1514E-10
 ==============================================================================
 Norm of residual vector:     3.5871E-09
 CPU time [hr]:     0.003                          Wall time [hr]:     0.001
 
 Iteration 18  CC energy:   -74.95414533          Energy decrease:   2.8876E-11
 Step      18  CC energy:   -74.954145334377571   Energy change  :   2.8876E-11
 ==============================================================================
 Norm of residual vector:     1.1256E-09
 CPU time [hr]:     0.003                          Wall time [hr]:     0.001
 
 Iteration 19  CC energy:   -74.95414533          Energy decrease:   7.3896E-12
 Step      19  CC energy:   -74.954145334370182   Energy change  :   7.3896E-12
 ==============================================================================
 Norm of residual vector:     3.4930E-10
 CPU time [hr]:     0.003                          Wall time [hr]:     0.001
 
 Iteration 20  CC energy:   -74.95414533          Energy decrease:   2.3022E-12
 Step      20  CC energy:   -74.954145334367880   Energy change  :   2.3022E-12
 ==============================================================================
 Norm of residual vector:     9.3642E-11
 CPU time [hr]:     0.003                          Wall time [hr]:     0.001
 
 Iteration 21  CC energy:   -74.95414533          Energy decrease:   1.6342E-12
 Step      21  CC energy:   -74.954145334366245   Energy change  :   1.6342E-12
 ==============================================================================
 
 Iteration has converged in 21 steps.
 
 Final results:
 Total CCSD energy [au]:                      -74.954145334366
 
 Perturbative corrections are calculated...
 ==============================================================================
 Spin case  1   Alpha:  0   Beta:  3
 Number of excitations:        690
 ispcorr1 :                     0.000000000000000000
 ispcorr2 :                     0.000000000000000000
 corr1    :                     0.000000000000000000
 corr2    :                     0.000000000000000000
 CPU time [min]:     0.175                   Wall time [min]:     0.048
 ======================================================================
 Spin case  2   Alpha:  1   Beta:  2
 Number of excitations:        31486
 ispcorr1 :                     0.000000000000000000
 ispcorr2 :                     0.000000000000000000
 corr1    :                     0.000000000000000000
 corr2    :                     0.000000000000000000
 CPU time [min]:     0.180                   Wall time [min]:     0.049
 ======================================================================
 Spin case  3   Alpha:  2   Beta:  1
 Number of excitations:        58446
 ispcorr1 :                     0.000000000000000000
 ispcorr2 :                     0.000000000000000000
 corr1    :                     0.000000000000000000
 corr2    :                     0.000000000000000000
 CPU time [min]:     0.187                   Wall time [min]:     0.051
 ======================================================================
 Spin case  4   Alpha:  3   Beta:  0
 Number of excitations:        5596
 ispcorr1 :                     0.000000000000000000
 ispcorr2 :                     0.000000000000000000
 corr1    :                     0.000000000000000000
 corr2    :                     0.000000000000000000
 CPU time [min]:     0.189                   Wall time [min]:     0.052
 ======================================================================
 Number of 3-fold excitations: 96218
 
 corr1 :                    -0.000000007610429556
 corr3 :                     0.000000000000000000
 corr4 :                     0.000000000000000000
 corr2 :                    -0.000001078831862746
 
 corr1 :                     0.000009354203361476
 corr3 :                     0.000000000000000000
 corr4 :                     0.000000000000000000
 corr2 :                    -0.000500414344755229
 
 corr1 :                     0.000099259189812789
 corr3 :                     0.000000000000000000
 corr4 :                     0.000000000000000000
 corr2 :                    -0.002047818206820877
 
 corr1 :                     0.000114877158624679
 corr3 :                     0.000000000000000000
 corr4 :                     0.000000000000000000
 corr2 :                    -0.002179219220843399
 
 CPU time [min]:     0.189                   Wall time [min]:     0.052
 
 Total CCSD[T] energy [au]:                   -74.956324553587
 Total CCSD(T) energy [au]:                   -74.956209676428
 
 Dominant cluster amplitudes
 Printing threshold:  1.00E-02
 
    1.000000  Reference determinant                                     
    0.013573  3b -> 12b                                                 
    0.012386  5a -> 11a                                                 
    0.012386  4a -> 10a                                                 
    0.015258  3a -> 12a                                                 
    0.010660  2b 3b -> 7b 21b                                           
    0.010660  2b 3b -> 8b 22b                                           
    0.011411  2b 3b -> 26b 27b                                          
   -0.010007  2a 2b -> 27a 13b                                          
   -0.010015  2a 2b -> 13a 27b                                          
   -0.017336  2a 2b -> 27a 27b                                          
   -0.017856  3a 3b -> 23a 19b                                          
   -0.010401  3a 3b -> 32a 19b                                          
   -0.010787  3a 3b -> 27a 27b                                          
   -0.010875  3a 3b -> 23a 28b                                          
   -0.014077  3a 3b -> 32a 28b                                          
   -0.013910  3a 3b -> 21a 21b                                          
   -0.010873  3a 3b -> 31a 31b                                          
   -0.013910  3a 3b -> 22a 22b                                          
   -0.010873  3a 3b -> 30a 30b                                          
   -0.010515  2a 2b -> 25a 25b                                          
   -0.010515  2a 2b -> 24a 24b                                          
   -0.019724  3a 3b -> 12a 12b                                          
   -0.024828  3a 3b -> 26a 12b                                          
   -0.023303  3a 3b -> 12a 26b                                          
   -0.042157  3a 3b -> 26a 26b                                          
   -0.013346  4a 3b -> 10a 12b                                          
   -0.018461  4a 3b -> 24a 12b                                          
   -0.015944  4a 3b -> 10a 26b                                          
   -0.030290  4a 3b -> 24a 26b                                          
   -0.011395  4a 3b -> 12a 7b                                           
   -0.010139  4a 3b -> 12a 10b                                          
   -0.013346  5a 3b -> 11a 12b                                          
   -0.018461  5a 3b -> 25a 12b                                          
   -0.015944  5a 3b -> 11a 26b                                          
   -0.030290  5a 3b -> 25a 26b                                          
   -0.011395  5a 3b -> 12a 8b                                           
   -0.010139  5a 3b -> 12a 11b                                          
    0.020268  5a 2b -> 19a 8b                                           
   -0.010712  5a 2b -> 23a 8b                                           
    0.014855  5a 2b -> 28a 8b                                           
    0.015342  5a 2b -> 19a 11b                                          
    0.012849  5a 2b -> 28a 11b                                          
   -0.011473  5a 2b -> 27a 25b                                          
    0.020268  5a 2b -> 20a 7b                                           
    0.014855  5a 2b -> 29a 7b                                           
    0.015342  5a 2b -> 20a 10b                                          
    0.012849  5a 2b -> 29a 10b                                          
   -0.015048  5a 2b -> 25a 13b                                          
   -0.010029  5a 2b -> 11a 27b                                          
   -0.022424  5a 2b -> 25a 27b                                          
   -0.020268  4a 2b -> 19a 7b                                           
   -0.010712  4a 2b -> 23a 7b                                           
   -0.014855  4a 2b -> 28a 7b                                           
   -0.015342  4a 2b -> 19a 10b                                          
   -0.012849  4a 2b -> 28a 10b                                          
   -0.011473  4a 2b -> 27a 24b                                          
    0.020268  4a 2b -> 20a 8b                                           
    0.014855  4a 2b -> 29a 8b                                           
    0.015342  4a 2b -> 20a 11b                                          
    0.012849  4a 2b -> 29a 11b                                          
   -0.015048  4a 2b -> 24a 13b                                          
   -0.010029  4a 2b -> 10a 27b                                          
   -0.022424  4a 2b -> 24a 27b                                          
   -0.010613  2a 3b -> 13a 12b                                          
   -0.011799  2a 3b -> 27a 12b                                          
   -0.015047  2a 3b -> 13a 26b                                          
   -0.023106  2a 3b -> 27a 26b                                          
   -0.011040  3a 2b -> 27a 26b                                          
    0.019535  3a 2b -> 21a 7b                                           
    0.014360  3a 2b -> 31a 7b                                           
    0.014701  3a 2b -> 21a 10b                                          
    0.012447  3a 2b -> 31a 10b                                          
    0.019535  3a 2b -> 22a 8b                                           
    0.014360  3a 2b -> 30a 8b                                           
    0.014701  3a 2b -> 22a 11b                                          
    0.012447  3a 2b -> 30a 11b                                          
   -0.010600  2a 3b -> 26a 27b                                          
   -0.010080  3a 2b -> 12a 13b                                          
   -0.015300  3a 2b -> 26a 13b                                          
   -0.010535  3a 2b -> 12a 27b                                          
   -0.022717  3a 2b -> 26a 27b                                          
    0.012611  3a 4a -> 21a 23a                                          
   -0.013593  3a 4a -> 12a 24a                                          
    0.012548  3a 4a -> 10a 26a                                          
    0.023702  3a 4a -> 24a 26a                                          
    0.012611  3a 5a -> 22a 23a                                          
   -0.013593  3a 5a -> 12a 25a                                          
    0.012548  3a 5a -> 11a 26a                                          
    0.023702  3a 5a -> 25a 26a                                          
    0.013161  4a 5a -> 19a 20a                                          
    0.012725  4a 5a -> 11a 24a                                          
   -0.012725  4a 5a -> 10a 25a                                          
   -0.024146  4a 5a -> 24a 25a                                          
    0.011139  4a 5a -> 28a 29a                                          
    0.013095  2a 5a -> 25a 27a                                          
    0.013095  2a 4a -> 24a 27a                                          
    0.013030  2a 3a -> 26a 27a                                          

 ************************ 2026-04-13 19:34:10 *************************
 Executing goldstone...

 Generation of CC equations in terms of H and T...
 Generation of antisymmetrized Goldstone diagrams...
 Number of diagrams in T^1 equations:    15
 Number of diagrams in T^2 equations:    38
 Number of diagrams in T^3 equations:    50
 Number of diagrams in T^4 equations:     5
 Translation of diagrams to factorized equations...
 Optimizing intermediate calculation...
 Number of floating-point operations per iteration step:   2.6337E+09
 Probable CPU time per iteration step (hours):            0.03
 Required memory (Mbytes):           140.9
 Number of intermediates:                                  80
 Number of intermediates to be stored:                     32
 Length of intermediate file (Mbytes):             4.8

 ************************ 2026-04-13 19:34:11 *************************
 Executing xmrcc...

 **********************************************************************
 CC(3)(4) calculation 
 
 
 Allocation of       332800.0 Mbytes of memory...
 Number of spinorbitals:                    72
 Number of alpha electrons:                        5
 Number of beta electrons:                         3
 Spin multiplicity:                     2
 z-component of spin:  1.0
 Spatial symmetry:                      4
 Convergence criterion:  1.0E-10
 Construction of occupation graphs...
 Number of                     0 -fold excitations:                      1
 Number of                     1 -fold excitations:                     56
 Number of                     2 -fold excitations:                   3084
 Number of                     3 -fold excitations:                  96218
 Total number of configurations:                  99359
 Calculation of coupling coefficients...
 Length of intermediate file (Mbytes):             4.1
 
 ======================================================================
 
 Spin case  1   Alpha:  1   Beta:  3
 Number of excitations:                 105404
 Spin case  2   Alpha:  2   Beta:  2
 Number of excitations:                 922830
 Spin case  3   Alpha:  3   Beta:  1
 Number of excitations:                 555201
 Spin case  4   Alpha:  4   Beta:  0
 Number of excitations:                  19862
 Number of                     4 -fold excitations:                1603297
 
 Memory requirements /Mbyte/: 
               Minimal        Optimal
 Real*8:         46.9554        46.9554
 Integer:        29.0183
 Total:          75.9737        75.9737
 

 ************************ 2026-04-13 19:34:11 *************************
 Executing mrcc...

 **********************************************************************
 CCSDT(Q) calculation                                                   
 
 
 OpenMP parallel version is running.
 Number of CPU cores:   4
 Allocation of           47.0 Mbytes of memory...
 Number of spinorbitals:  72
 Number of alpha electrons:  5
 Number of beta  electrons:  3
 Spin multiplicity: 3
 z-component of spin:  1.0
 Spatial symmetry: 4
 Convergence criterion:  1.0E-10
 Construction of occupation graphs...
 Number of 0-fold excitations: 1
 Number of 1-fold excitations: 56
 Number of 2-fold excitations: 3084
 Number of 3-fold excitations: 96218
 Total number of determinants: 99359
 Calculation of coupling coefficients...
 Initial cluster amplitudes are read from unit 16.
 Length of intermediate file (Mbytes):       4.1
 Reading integral list from unit 55...
 Sorting integrals...
 Sorting integrals...
 Sorting integrals...
 Sorting integrals...
 Energy of reference determinant [au]:     -74.787686087594
 Calculation of MP denominators...
 
 Starting CC iteration...
 ==============================================================================
 Norm of residual vector:     0.14949833
 CPU time [hr]:     0.001                          Wall time [hr]:     0.000
 
 Iteration  1  CC energy:   -74.95414533          Energy decrease:   3.8369E-13
 Step       1  CC energy:   -74.954145334365862   Energy change  :   3.8369E-13
 ==============================================================================
 Norm of residual vector:     0.02274650
 CPU time [hr]:     0.001                          Wall time [hr]:     0.000
 
 Iteration  2  CC energy:   -74.95584195          Energy decrease:   0.00169662
 Step       2  CC energy:   -74.955841953298133   Energy change  :   0.00169662
 ==============================================================================
 Norm of residual vector:     0.00838425
 CPU time [hr]:     0.002                          Wall time [hr]:     0.001
 
 Iteration  3  CC energy:   -74.95630277          Energy decrease:   0.00046082
 Step       3  CC energy:   -74.956302770481699   Energy change  :   0.00046082
 ==============================================================================
 Norm of residual vector:     0.00257124
 CPU time [hr]:     0.003                          Wall time [hr]:     0.001
 
 Iteration  4  CC energy:   -74.95641278          Energy decrease:   0.00011001
 Step       4  CC energy:   -74.956412781943058   Energy change  :   0.00011001
 ==============================================================================
 Norm of residual vector:     0.00130627
 CPU time [hr]:     0.003                          Wall time [hr]:     0.001
 
 Iteration  5  CC energy:   -74.95646298          Energy decrease:   0.00005020
 Step       5  CC energy:   -74.956462983696369   Energy change  :   0.00005020
 ==============================================================================
 Norm of residual vector:     0.00068555
 CPU time [hr]:     0.004                          Wall time [hr]:     0.001
 
 Iteration  6  CC energy:   -74.95647354          Energy decrease:   0.00001055
 Step       6  CC energy:   -74.956473536780507   Energy change  :   0.00001055
 ==============================================================================
 Norm of residual vector:     0.00031320
 CPU time [hr]:     0.004                          Wall time [hr]:     0.001
 
 Iteration  7  CC energy:   -74.95647353          Energy decrease:   0.00000001
 Step       7  CC energy:   -74.956473526686636   Energy change  :   0.00000001
 ==============================================================================
 Norm of residual vector:     0.00012425
 CPU time [hr]:     0.005                          Wall time [hr]:     0.001
 
 Iteration  8  CC energy:   -74.95647344          Energy decrease:   0.00000009
 Step       8  CC energy:   -74.956473437968256   Energy change  :   0.00000009
 ==============================================================================
 Norm of residual vector:     0.00005340
 CPU time [hr]:     0.005                          Wall time [hr]:     0.001
 
 Iteration  9  CC energy:   -74.95647345          Energy decrease:   0.00000001
 Step       9  CC energy:   -74.956473450423175   Energy change  :   0.00000001
 ==============================================================================
 Norm of residual vector:     0.00002419
 CPU time [hr]:     0.006                          Wall time [hr]:     0.002
 
 Iteration 10  CC energy:   -74.95647340          Energy decrease:   0.00000005
 Step      10  CC energy:   -74.956473400814261   Energy change  :   0.00000005
 ==============================================================================
 Norm of residual vector:     0.00001214
 CPU time [hr]:     0.007                          Wall time [hr]:     0.002
 
 Iteration 11  CC energy:   -74.95647336          Energy decrease:   0.00000004
 Step      11  CC energy:   -74.956473362698674   Energy change  :   0.00000004
 ==============================================================================
 Norm of residual vector:     0.00000548
 CPU time [hr]:     0.007                          Wall time [hr]:     0.002
 
 Iteration 12  CC energy:   -74.95647336          Energy decrease:   2.5215E-09
 Step      12  CC energy:   -74.956473360177156   Energy change  :   2.5215E-09
 ==============================================================================
 Norm of residual vector:     0.00000248
 CPU time [hr]:     0.008                          Wall time [hr]:     0.002
 
 Iteration 13  CC energy:   -74.95647336          Energy decrease:   2.0219E-09
 Step      13  CC energy:   -74.956473362199048   Energy change  :   2.0219E-09
 ==============================================================================
 Norm of residual vector:     0.00000112
 CPU time [hr]:     0.008                          Wall time [hr]:     0.002
 
 Iteration 14  CC energy:   -74.95647336          Energy decrease:   8.1577E-10
 Step      14  CC energy:   -74.956473361383274   Energy change  :   8.1577E-10
 ==============================================================================
 Norm of residual vector:     0.00000048
 CPU time [hr]:     0.009                          Wall time [hr]:     0.002
 
 Iteration 15  CC energy:   -74.95647336          Energy decrease:   5.6603E-10
 Step      15  CC energy:   -74.956473360817242   Energy change  :   5.6603E-10
 ==============================================================================
 Norm of residual vector:     0.00000021
 CPU time [hr]:     0.010                          Wall time [hr]:     0.002
 
 Iteration 16  CC energy:   -74.95647336          Energy decrease:   7.1213E-10
 Step      16  CC energy:   -74.956473361529376   Energy change  :   7.1213E-10
 ==============================================================================
 Norm of residual vector:     0.00000008
 CPU time [hr]:     0.010                          Wall time [hr]:     0.003
 
 Iteration 17  CC energy:   -74.95647336          Energy decrease:   4.9128E-10
 Step      17  CC energy:   -74.956473362020660   Energy change  :   4.9128E-10
 ==============================================================================
 Norm of residual vector:     0.00000003
 CPU time [hr]:     0.011                          Wall time [hr]:     0.003
 
 Iteration 18  CC energy:   -74.95647336          Energy decrease:   1.4751E-11
 Step      18  CC energy:   -74.956473362035410   Energy change  :   1.4751E-11
 ==============================================================================
 Norm of residual vector:     0.00000001
 CPU time [hr]:     0.012                          Wall time [hr]:     0.003
 
 Iteration 19  CC energy:   -74.95647336          Energy decrease:   1.0857E-10
 Step      19  CC energy:   -74.956473361926840   Energy change  :   1.0857E-10
 ==============================================================================
 Norm of residual vector:     0.00000001
 CPU time [hr]:     0.012                          Wall time [hr]:     0.003
 
 Iteration 20  CC energy:   -74.95647336          Energy decrease:   3.7502E-11
 Step      20  CC energy:   -74.956473361889337   Energy change  :   3.7502E-11
 ==============================================================================
 Norm of residual vector:     2.1513E-09
 CPU time [hr]:     0.013                          Wall time [hr]:     0.003
 
 Iteration 21  CC energy:   -74.95647336          Energy decrease:   6.1391E-12
 Step      21  CC energy:   -74.956473361883198   Energy change  :   6.1391E-12
 ==============================================================================
 Norm of residual vector:     7.9464E-10
 CPU time [hr]:     0.014                          Wall time [hr]:     0.003
 
 Iteration 22  CC energy:   -74.95647336          Energy decrease:   1.9611E-12
 Step      22  CC energy:   -74.956473361881237   Energy change  :   1.9611E-12
 ==============================================================================
 Norm of residual vector:     2.7963E-10
 CPU time [hr]:     0.014                          Wall time [hr]:     0.004
 
 Iteration 23  CC energy:   -74.95647336          Energy decrease:   3.5811E-12
 Step      23  CC energy:   -74.956473361877656   Energy change  :   3.5811E-12
 ==============================================================================
 Norm of residual vector:     1.0102E-10
 CPU time [hr]:     0.015                          Wall time [hr]:     0.004
 
 Iteration 24  CC energy:   -74.95647336          Energy decrease:   4.2633E-13
 Step      24  CC energy:   -74.956473361878082   Energy change  :   4.2633E-13
 ==============================================================================
 Norm of residual vector:     3.9212E-11
 CPU time [hr]:     0.015                          Wall time [hr]:     0.004
 
 Iteration 25  CC energy:   -74.95647336          Energy decrease:   3.9790E-13
 Step      25  CC energy:   -74.956473361878480   Energy change  :   3.9790E-13
 ==============================================================================
 
 Iteration has converged in 25 steps.
 
 Final results:
 Total CCSDT energy [au]:                     -74.956473361878
 
 Perturbative corrections are calculated...
 ==============================================================================
 Spin case  1   Alpha:  1   Beta:  3
 Number of excitations:        105404
 ispcorr1 :                     0.000000000000000000
 ispcorr2 :                     0.000000000000000000
 corr1    :                     0.000000000000000000
 corr2    :                     0.000000000000000000
 CPU time [min]:     1.116                   Wall time [min]:     0.282
 ======================================================================
 Spin case  2   Alpha:  2   Beta:  2
 Number of excitations:        922830
 ispcorr1 :                     0.000000000000000000
 ispcorr2 :                     0.000000000000000000
 corr1    :                     0.000000000000000000
 corr2    :                     0.000000000000000000
 CPU time [min]:     1.603                   Wall time [min]:     0.406
 ======================================================================
 Spin case  3   Alpha:  3   Beta:  1
 Number of excitations:        555201
 ispcorr1 :                     0.000000000000000000
 ispcorr2 :                     0.000000000000000000
 corr1    :                     0.000000000000000000
 corr2    :                     0.000000000000000000
 CPU time [min]:     1.921                   Wall time [min]:     0.486
 ======================================================================
 Spin case  4   Alpha:  4   Beta:  0
 Number of excitations:        19862
 ispcorr1 :                     0.000000000000000000
 ispcorr2 :                     0.000000000000000000
 corr1    :                     0.000000000000000000
 corr2    :                     0.000000000000000000
 CPU time [min]:     1.950                   Wall time [min]:     0.494
 ======================================================================
 Number of 4-fold excitations: 1603297
 
 T_2^+ contribution [au]:                                  -0.000000673546958915
 corr1 :                    -0.000000673546958915
 corr3 :                     0.000000000000000000
 corr4 :                     0.000000000000000000
 T_3^+ contribution [au]:                                  -0.000000157391732347
 T_1^+ * T_2^+ contribution [au]:                           0.000000002416172360
 T_1^+ * <ab||ij> contribution [au]:                        0.000000002715231801
 T_2^+ * f_ai contribution [au]:                            0.000000000000000000
 corr2 :                    -0.000000157391732347
 corr3 :                     0.000000002416172360
 corr4 :                     0.000000002715231801
 
 T_2^+ contribution [au]:                                  -0.000014240423216974
 corr1 :                    -0.000014240423216974
 corr3 :                     0.000000002416172360
 corr4 :                     0.000000002715231801
 T_3^+ contribution [au]:                                  -0.000026853449435181
 T_1^+ * T_2^+ contribution [au]:                           0.000003203077434633
 T_1^+ * <ab||ij> contribution [au]:                        0.000002038737239049
 T_2^+ * f_ai contribution [au]:                            0.000000000000000000
 corr2 :                    -0.000026853449435181
 corr3 :                     0.000003205493606993
 corr4 :                     0.000002041452470849
 
 T_2^+ contribution [au]:                                  -0.000025325844710572
 corr1 :                    -0.000025325844710572
 corr3 :                     0.000003205493606993
 corr4 :                     0.000002041452470849
 T_3^+ contribution [au]:                                  -0.000053203526936777
 T_1^+ * T_2^+ contribution [au]:                           0.000007503192269853
 T_1^+ * <ab||ij> contribution [au]:                        0.000004601818927670
 T_2^+ * f_ai contribution [au]:                           -0.000000000000000000
 corr2 :                    -0.000053203526936777
 corr3 :                     0.000010708685876846
 corr4 :                     0.000006643271398519
 
 T_2^+ contribution [au]:                                  -0.000025605031795060
 corr1 :                    -0.000025605031795060
 corr3 :                     0.000010708685876846
 corr4 :                     0.000006643271398519
 T_3^+ contribution [au]:                                  -0.000053777803354768
 T_1^+ * T_2^+ contribution [au]:                           0.000007660385573505
 T_1^+ * <ab||ij> contribution [au]:                        0.000004698742542065
 T_2^+ * f_ai contribution [au]:                           -0.000000000000000000
 corr2 :                    -0.000053777803354768
 corr3 :                     0.000018369071450351
 corr4 :                     0.000011342013940585
 
 CPU time [min]:     1.965                   Wall time [min]:     0.497
 
 Total CCSDT[Q] energy [au]:                  -74.956498966910
 Total CCSDT(Q)/A energy [au]:                -74.956534375642
 Total CCSDT(Q)/B energy [au]:                -74.956541402700
 
 Dominant cluster amplitudes
 Printing threshold:  1.00E-02
 
    1.000000  Reference determinant                                     
    0.012558  3b -> 12b                                                 
    0.011300  5a -> 11a                                                 
    0.011300  4a -> 10a                                                 
    0.014695  3a -> 12a                                                 
    0.011146  2b 3b -> 7b 21b                                           
    0.011146  2b 3b -> 8b 22b                                           
    0.011583  2b 3b -> 26b 27b                                          
   -0.010117  2a 2b -> 27a 13b                                          
   -0.010113  2a 2b -> 13a 27b                                          
   -0.017418  2a 2b -> 27a 27b                                          
   -0.018398  3a 3b -> 23a 19b                                          
   -0.010448  3a 3b -> 32a 19b                                          
   -0.010886  3a 3b -> 27a 27b                                          
   -0.010909  3a 3b -> 23a 28b                                          
   -0.014116  3a 3b -> 32a 28b                                          
   -0.014268  3a 3b -> 21a 21b                                          
   -0.010882  3a 3b -> 31a 31b                                          
   -0.014268  3a 3b -> 22a 22b                                          
   -0.010882  3a 3b -> 30a 30b                                          
   -0.010644  2a 2b -> 25a 25b                                          
   -0.010644  2a 2b -> 24a 24b                                          
   -0.021429  3a 3b -> 12a 12b                                          
   -0.025473  3a 3b -> 26a 12b                                          
   -0.023918  3a 3b -> 12a 26b                                          
   -0.042459  3a 3b -> 26a 26b                                          
    0.010164  4a 3b -> 19a 21b                                          
   -0.010177  4a 3b -> 21a 19b                                          
   -0.010164  4a 3b -> 20a 22b                                          
   -0.014770  4a 3b -> 10a 12b                                          
   -0.019151  4a 3b -> 24a 12b                                          
   -0.016418  4a 3b -> 10a 26b                                          
   -0.030612  4a 3b -> 24a 26b                                          
   -0.013768  4a 3b -> 12a 7b                                           
   -0.011822  4a 3b -> 12a 10b                                          
   -0.010164  5a 3b -> 19a 22b                                          
   -0.010177  5a 3b -> 22a 19b                                          
   -0.010164  5a 3b -> 20a 21b                                          
   -0.014770  5a 3b -> 11a 12b                                          
   -0.019151  5a 3b -> 25a 12b                                          
   -0.016418  5a 3b -> 11a 26b                                          
   -0.030612  5a 3b -> 25a 26b                                          
   -0.013768  5a 3b -> 12a 8b                                           
   -0.011822  5a 3b -> 12a 11b                                          
    0.021017  5a 2b -> 19a 8b                                           
   -0.011119  5a 2b -> 23a 8b                                           
    0.014954  5a 2b -> 28a 8b                                           
    0.015751  5a 2b -> 19a 11b                                          
    0.012946  5a 2b -> 28a 11b                                          
   -0.011658  5a 2b -> 27a 25b                                          
    0.021017  5a 2b -> 20a 7b                                           
    0.014954  5a 2b -> 29a 7b                                           
    0.015751  5a 2b -> 20a 10b                                          
    0.012946  5a 2b -> 29a 10b                                          
   -0.015487  5a 2b -> 25a 13b                                          
   -0.010193  5a 2b -> 11a 27b                                          
   -0.022627  5a 2b -> 25a 27b                                          
   -0.021017  4a 2b -> 19a 7b                                           
   -0.011119  4a 2b -> 23a 7b                                           
   -0.014954  4a 2b -> 28a 7b                                           
   -0.015751  4a 2b -> 19a 10b                                          
   -0.012946  4a 2b -> 28a 10b                                          
   -0.011658  4a 2b -> 27a 24b                                          
    0.021017  4a 2b -> 20a 8b                                           
    0.014954  4a 2b -> 29a 8b                                           
    0.015751  4a 2b -> 20a 11b                                          
    0.012946  4a 2b -> 29a 11b                                          
   -0.015487  4a 2b -> 24a 13b                                          
   -0.010193  4a 2b -> 10a 27b                                          
   -0.022627  4a 2b -> 24a 27b                                          
   -0.011217  2a 3b -> 13a 12b                                          
   -0.011909  2a 3b -> 27a 12b                                          
   -0.015276  2a 3b -> 13a 26b                                          
   -0.023177  2a 3b -> 27a 26b                                          
   -0.011060  3a 2b -> 27a 26b                                          
    0.020296  3a 2b -> 21a 7b                                           
    0.014464  3a 2b -> 31a 7b                                           
    0.015126  3a 2b -> 21a 10b                                          
    0.012551  3a 2b -> 31a 10b                                          
    0.020296  3a 2b -> 22a 8b                                           
    0.014464  3a 2b -> 30a 8b                                           
    0.015126  3a 2b -> 22a 11b                                          
    0.012551  3a 2b -> 30a 11b                                          
   -0.010632  2a 3b -> 26a 27b                                          
   -0.010865  3a 2b -> 12a 13b                                          
   -0.015676  3a 2b -> 26a 13b                                          
   -0.010749  3a 2b -> 12a 27b                                          
   -0.022900  3a 2b -> 26a 27b                                          
    0.010676  3a 4a -> 10a 12a                                          
    0.013163  3a 4a -> 21a 23a                                          
   -0.014286  3a 4a -> 12a 24a                                          
    0.013059  3a 4a -> 10a 26a                                          
    0.024088  3a 4a -> 24a 26a                                          
    0.010676  3a 5a -> 11a 12a                                          
    0.013163  3a 5a -> 22a 23a                                          
   -0.014286  3a 5a -> 12a 25a                                          
    0.013059  3a 5a -> 11a 26a                                          
    0.024088  3a 5a -> 25a 26a                                          
    0.013661  4a 5a -> 19a 20a                                          
    0.013220  4a 5a -> 11a 24a                                          
   -0.013220  4a 5a -> 10a 25a                                          
   -0.024509  4a 5a -> 24a 25a                                          
    0.011182  4a 5a -> 28a 29a                                          
    0.013144  2a 5a -> 25a 27a                                          
    0.013144  2a 4a -> 24a 27a                                          
    0.013047  2a 3a -> 26a 27a                                          

 ************************ 2026-04-13 19:34:41 *************************
 Executing goldstone...

 Generation of CC equations in terms of H and T...
 Generation of antisymmetrized Goldstone diagrams...
 Number of diagrams in T^1 equations:    15
 Number of diagrams in T^2 equations:    38
 Number of diagrams in T^3 equations:    54
 Number of diagrams in T^4 equations:    77
 Number of diagrams in T^5 equations:     8
 Translation of diagrams to factorized equations...
 Optimizing intermediate calculation...
 Number of floating-point operations per iteration step:   9.7319E+10
 Probable CPU time per iteration step (hours):            0.97
 Required memory (Mbytes):           407.2
 Number of intermediates:                                 119
 Number of intermediates to be stored:                     52
 Length of intermediate file (Mbytes):           109.9

 ************************ 2026-04-13 19:34:41 *************************
 Executing xmrcc...

 **********************************************************************
 CC(4)(5) calculation 
 
 
 Allocation of       332800.0 Mbytes of memory...
 Number of spinorbitals:                    72
 Number of alpha electrons:                        5
 Number of beta electrons:                         3
 Spin multiplicity:                     2
 z-component of spin:  1.0
 Spatial symmetry:                      4
 Convergence criterion:  1.0E-10
 Construction of occupation graphs...
 Number of                     0 -fold excitations:                      1
 Number of                     1 -fold excitations:                     56
 Number of                     2 -fold excitations:                   3084
 Number of                     3 -fold excitations:                  96218
 Number of                     4 -fold excitations:                1603297
 Total number of configurations:                1702656
 Calculation of coupling coefficients...
 Length of intermediate file (Mbytes):            71.8
 
 ======================================================================
 
 Spin case  1   Alpha:  2   Beta:  3
 Number of excitations:                3170598
 Spin case  2   Alpha:  3   Beta:  2
 Number of excitations:                8897110
 Spin case  3   Alpha:  4   Beta:  1
 Number of excitations:                1952042
 Spin case  4   Alpha:  5   Beta:  0
 Number of excitations:                  21588
 Number of                     5 -fold excitations:               14041338
 
 Memory requirements /Mbyte/: 
               Minimal        Optimal
 Real*8:        127.6129       127.6129
 Integer:        41.3753
 Total:         168.9882       168.9882
 

 ************************ 2026-04-13 19:34:42 *************************
 Executing mrcc...

 **********************************************************************
 CCSDTQ(P) calculation                                                  
 
 
 OpenMP parallel version is running.
 Number of CPU cores:   4
 Allocation of          127.6 Mbytes of memory...
 Number of spinorbitals:  72
 Number of alpha electrons:  5
 Number of beta  electrons:  3
 Spin multiplicity: 3
 z-component of spin:  1.0
 Spatial symmetry: 4
 Convergence criterion:  1.0E-10
 Construction of occupation graphs...
 Number of 0-fold excitations: 1
 Number of 1-fold excitations: 56
 Number of 2-fold excitations: 3084
 Number of 3-fold excitations: 96218
 Number of 4-fold excitations: 1603297
 Total number of determinants: 1702656
 Calculation of coupling coefficients...
 Initial cluster amplitudes are read from unit 16.
 Length of intermediate file (Mbytes):      71.8
 Reading integral list from unit 55...
 Sorting integrals...
 Sorting integrals...
 Sorting integrals...
 Sorting integrals...
 Energy of reference determinant [au]:     -74.787686087594
 Calculation of MP denominators...
 
 Starting CC iteration...
 ==============================================================================
 Norm of residual vector:     0.02519550
 CPU time [hr]:     0.014                          Wall time [hr]:     0.004
 
 Iteration  1  CC energy:   -74.95647336          Energy decrease:   5.6843E-14
 Step       1  CC energy:   -74.956473361878423   Energy change  :   5.6843E-14
 ==============================================================================
 Norm of residual vector:     0.00476036
 CPU time [hr]:     0.027                          Wall time [hr]:     0.007
 
 Iteration  2  CC energy:   -74.95648863          Energy decrease:   0.00001527
 Step       2  CC energy:   -74.956488626930749   Energy change  :   0.00001527
 ==============================================================================
 Norm of residual vector:     0.00180836
 CPU time [hr]:     0.041                          Wall time [hr]:     0.011
 
 Iteration  3  CC energy:   -74.95653407          Energy decrease:   0.00004545
 Step       3  CC energy:   -74.956534072815003   Energy change  :   0.00004545
 ==============================================================================
 Norm of residual vector:     0.00054760
 CPU time [hr]:     0.054                          Wall time [hr]:     0.014
 
 Iteration  4  CC energy:   -74.95655410          Energy decrease:   0.00002003
 Step       4  CC energy:   -74.956554104707038   Energy change  :   0.00002003
 ==============================================================================
 Norm of residual vector:     0.00016121
 CPU time [hr]:     0.068                          Wall time [hr]:     0.017
 
 Iteration  5  CC energy:   -74.95655496          Energy decrease:   0.00000086
 Step       5  CC energy:   -74.956554964097208   Energy change  :   0.00000086
 ==============================================================================
 Norm of residual vector:     0.00006927
 CPU time [hr]:     0.081                          Wall time [hr]:     0.021
 
 Iteration  6  CC energy:   -74.95655569          Energy decrease:   0.00000072
 Step       6  CC energy:   -74.956555686672033   Energy change  :   0.00000072
 ==============================================================================
 Norm of residual vector:     0.00003232
 CPU time [hr]:     0.095                          Wall time [hr]:     0.024
 
 Iteration  7  CC energy:   -74.95655601          Energy decrease:   0.00000032
 Step       7  CC energy:   -74.956556007626830   Energy change  :   0.00000032
 ==============================================================================
 Norm of residual vector:     0.00001780
 CPU time [hr]:     0.109                          Wall time [hr]:     0.028
 
 Iteration  8  CC energy:   -74.95655618          Energy decrease:   0.00000017
 Step       8  CC energy:   -74.956556179226496   Energy change  :   0.00000017
 ==============================================================================
 Norm of residual vector:     0.00000968
 CPU time [hr]:     0.123                          Wall time [hr]:     0.031
 
 Iteration  9  CC energy:   -74.95655636          Energy decrease:   0.00000018
 Step       9  CC energy:   -74.956556355385644   Energy change  :   0.00000018
 ==============================================================================
 Norm of residual vector:     0.00000497
 CPU time [hr]:     0.137                          Wall time [hr]:     0.035
 
 Iteration 10  CC energy:   -74.95655644          Energy decrease:   0.00000009
 Step      10  CC energy:   -74.956556444192458   Energy change  :   0.00000009
 ==============================================================================
 Norm of residual vector:     0.00000230
 CPU time [hr]:     0.151                          Wall time [hr]:     0.039
 
 Iteration 11  CC energy:   -74.95655645          Energy decrease:   0.00000001
 Step      11  CC energy:   -74.956556450166005   Energy change  :   0.00000001
 ==============================================================================
 Norm of residual vector:     0.00000103
 CPU time [hr]:     0.165                          Wall time [hr]:     0.042
 
 Iteration 12  CC energy:   -74.95655644          Energy decrease:   0.00000001
 Step      12  CC energy:   -74.956556442831982   Energy change  :   0.00000001
 ==============================================================================
 Norm of residual vector:     0.00000049
 CPU time [hr]:     0.180                          Wall time [hr]:     0.046
 
 Iteration 13  CC energy:   -74.95655644          Energy decrease:   1.9324E-09
 Step      13  CC energy:   -74.956556440899547   Energy change  :   1.9324E-09
 ==============================================================================
 Norm of residual vector:     0.00000025
 CPU time [hr]:     0.194                          Wall time [hr]:     0.049
 
 Iteration 14  CC energy:   -74.95655644          Energy decrease:   6.7668E-10
 Step      14  CC energy:   -74.956556441576225   Energy change  :   6.7668E-10
 ==============================================================================
 Norm of residual vector:     0.00000014
 CPU time [hr]:     0.208                          Wall time [hr]:     0.053
 
 Iteration 15  CC energy:   -74.95655644          Energy decrease:   1.5746E-10
 Step      15  CC energy:   -74.956556441733682   Energy change  :   1.5746E-10
 ==============================================================================
 Norm of residual vector:     0.00000007
 CPU time [hr]:     0.223                          Wall time [hr]:     0.057
 
 Iteration 16  CC energy:   -74.95655644          Energy decrease:   4.2924E-10
 Step      16  CC energy:   -74.956556441304443   Energy change  :   4.2924E-10
 ==============================================================================
 Norm of residual vector:     0.00000003
 CPU time [hr]:     0.238                          Wall time [hr]:     0.060
 
 Iteration 17  CC energy:   -74.95655644          Energy decrease:   3.2198E-10
 Step      17  CC energy:   -74.956556440982467   Energy change  :   3.2198E-10
 ==============================================================================
 Norm of residual vector:     0.00000001
 CPU time [hr]:     0.252                          Wall time [hr]:     0.064
 
 Iteration 18  CC energy:   -74.95655644          Energy decrease:   3.0397E-11
 Step      18  CC energy:   -74.956556440952070   Energy change  :   3.0397E-11
 ==============================================================================
 Norm of residual vector:     0.00000001
 CPU time [hr]:     0.267                          Wall time [hr]:     0.068
 
 Iteration 19  CC energy:   -74.95655644          Energy decrease:   3.4390E-11
 Step      19  CC energy:   -74.956556440986461   Energy change  :   3.4390E-11
 ==============================================================================
 Norm of residual vector:     2.8588E-09
 CPU time [hr]:     0.282                          Wall time [hr]:     0.071
 
 Iteration 20  CC energy:   -74.95655644          Energy decrease:   1.1369E-11
 Step      20  CC energy:   -74.956556440997829   Energy change  :   1.1369E-11
 ==============================================================================
 Norm of residual vector:     1.3092E-09
 CPU time [hr]:     0.297                          Wall time [hr]:     0.075
 
 Iteration 21  CC energy:   -74.95655644          Energy decrease:   1.6342E-12
 Step      21  CC energy:   -74.956556440996195   Energy change  :   1.6342E-12
 ==============================================================================
 Norm of residual vector:     5.6889E-10
 CPU time [hr]:     0.312                          Wall time [hr]:     0.079
 
 Iteration 22  CC energy:   -74.95655644          Energy decrease:   1.5774E-12
 Step      22  CC energy:   -74.956556440994618   Energy change  :   1.5774E-12
 ==============================================================================
 Norm of residual vector:     2.6190E-10
 CPU time [hr]:     0.327                          Wall time [hr]:     0.083
 
 Iteration 23  CC energy:   -74.95655644          Energy decrease:   9.9476E-14
 Step      23  CC energy:   -74.956556440994717   Energy change  :   9.9476E-14
 ==============================================================================
 Norm of residual vector:     1.1692E-10
 CPU time [hr]:     0.342                          Wall time [hr]:     0.087
 
 Iteration 24  CC energy:   -74.95655644          Energy decrease:   4.1211E-13
 Step      24  CC energy:   -74.956556440995129   Energy change  :   4.1211E-13
 ==============================================================================
 Norm of residual vector:     4.9187E-11
 CPU time [hr]:     0.357                          Wall time [hr]:     0.090
 
 Iteration 25  CC energy:   -74.95655644          Energy decrease:   2.8422E-14
 Step      25  CC energy:   -74.956556440995158   Energy change  :   2.8422E-14
 ==============================================================================
 
 Iteration has converged in 25 steps.
 
 Final results:
 Total CCSDTQ energy [au]:                    -74.956556440995
 
 Perturbative corrections are calculated...
 ==============================================================================
 Spin case  1   Alpha:  2   Beta:  3
 Number of excitations:        3170598
 ispcorr1 :                     0.000000000000000000
 ispcorr2 :                     0.000000000000000000
 corr1    :                     0.000000000000000000
 corr2    :                     0.000000000000000000
 CPU time [min]:    28.014                   Wall time [min]:     7.164
 ======================================================================
 Spin case  2   Alpha:  3   Beta:  2
 Number of excitations:        8897110
 ispcorr1 :                     0.000000000000000000
 ispcorr2 :                     0.000000000000000000
 corr1    :                     0.000000000000000000
 corr2    :                     0.000000000000000000
 CPU time [min]:    38.310                   Wall time [min]:     9.831
 ======================================================================
 Spin case  3   Alpha:  4   Beta:  1
 Number of excitations:        1952042
 ispcorr1 :                     0.000000000000000000
 ispcorr2 :                     0.000000000000000000
 corr1    :                     0.000000000000000000
 corr2    :                     0.000000000000000000
 CPU time [min]:    41.793                   Wall time [min]:    10.709
 ======================================================================
 Spin case  4   Alpha:  5   Beta:  0
 Number of excitations:        21588
 ispcorr1 :                     0.000000000000000000
 ispcorr2 :                     0.000000000000000000
 corr1    :                     0.000000000000000000
 corr2    :                     0.000000000000000000
 CPU time [min]:    41.949                   Wall time [min]:    10.748
 ======================================================================
 Number of 5-fold excitations: 14041338
 
 T_3^+ contribution [au]:                                  -0.000000030683406794
 T_1^+ * T_2^+ contribution [au]:                           0.000000001541994286
 T_1^+ * <ab||ij> contribution [au]:                        0.000000000788103835
 T_2^+ * f_ai contribution [au]:                            0.000000000000000000
 corr1 :                    -0.000000030683406794
 corr3 :                     0.000000001541994286
 corr4 :                     0.000000000788103835
 T_2^+ contribution [au]:                                  -0.000000011698985069
 corr2 :                    -0.000000011698985069
 corr3 :                     0.000000001541994286
 corr4 :                     0.000000000788103835
 
 T_3^+ contribution [au]:                                   0.000000071095509860
 T_1^+ * T_2^+ contribution [au]:                           0.000000006467837976
 T_1^+ * <ab||ij> contribution [au]:                        0.000000023394485846
 T_2^+ * f_ai contribution [au]:                            0.000000000000000000
 corr1 :                     0.000000071095509860
 corr3 :                     0.000000008009832262
 corr4 :                     0.000000024182589680
 T_2^+ contribution [au]:                                   0.000000558125896415
 corr2 :                     0.000000558125896415
 corr3 :                     0.000000008009832262
 corr4 :                     0.000000024182589680
 
 T_3^+ contribution [au]:                                   0.000000050790382103
 T_1^+ * T_2^+ contribution [au]:                           0.000000038018115714
 T_1^+ * <ab||ij> contribution [au]:                        0.000000050142550359
 T_2^+ * f_ai contribution [au]:                            0.000000000000000000
 corr1 :                     0.000000050790382103
 corr3 :                     0.000000046027947976
 corr4 :                     0.000000074325140040
 T_2^+ contribution [au]:                                   0.000000611780167110
 corr2 :                     0.000000611780167110
 corr3 :                     0.000000046027947976
 corr4 :                     0.000000074325140040
 
 T_3^+ contribution [au]:                                   0.000000050296662735
 T_1^+ * T_2^+ contribution [au]:                           0.000000038126225269
 T_1^+ * <ab||ij> contribution [au]:                        0.000000050199605357
 T_2^+ * f_ai contribution [au]:                            0.000000000000000000
 corr1 :                     0.000000050296662735
 corr3 :                     0.000000084154173245
 corr4 :                     0.000000124524745397
 T_2^+ contribution [au]:                                   0.000000611685607038
 corr2 :                     0.000000611685607038
 corr3 :                     0.000000084154173245
 corr4 :                     0.000000124524745397
 
 CPU time [min]:    42.134                   Wall time [min]:    10.804
 
 Total CCSDTQ[P] energy [au]:                 -74.956555694859
 Total CCSDTQ(P)/A energy [au]:               -74.956555694859
 Total CCSDTQ(P)/B energy [au]:               -74.956555654488
 
 Dominant cluster amplitudes
 Printing threshold:  1.00E-02
 
    1.000000  Reference determinant                                     
    0.012393  3b -> 12b                                                 
    0.011194  5a -> 11a                                                 
    0.011194  4a -> 10a                                                 
    0.014576  3a -> 12a                                                 
    0.011155  2b 3b -> 7b 21b                                           
    0.011155  2b 3b -> 8b 22b                                           
    0.011602  2b 3b -> 26b 27b                                          
   -0.010114  2a 2b -> 27a 13b                                          
   -0.010113  2a 2b -> 13a 27b                                          
   -0.017430  2a 2b -> 27a 27b                                          
   -0.018395  3a 3b -> 23a 19b                                          
   -0.010453  3a 3b -> 32a 19b                                          
   -0.010888  3a 3b -> 27a 27b                                          
   -0.010916  3a 3b -> 23a 28b                                          
   -0.014121  3a 3b -> 32a 28b                                          
   -0.014268  3a 3b -> 21a 21b                                          
   -0.010887  3a 3b -> 31a 31b                                          
   -0.014268  3a 3b -> 22a 22b                                          
   -0.010887  3a 3b -> 30a 30b                                          
   -0.010648  2a 2b -> 25a 25b                                          
   -0.010648  2a 2b -> 24a 24b                                          
   -0.021430  3a 3b -> 12a 12b                                          
   -0.025486  3a 3b -> 26a 12b                                          
   -0.023927  3a 3b -> 12a 26b                                          
   -0.042516  3a 3b -> 26a 26b                                          
    0.010163  4a 3b -> 19a 21b                                          
   -0.010175  4a 3b -> 21a 19b                                          
   -0.010163  4a 3b -> 20a 22b                                          
   -0.014788  4a 3b -> 10a 12b                                          
   -0.019162  4a 3b -> 24a 12b                                          
   -0.016430  4a 3b -> 10a 26b                                          
   -0.030659  4a 3b -> 24a 26b                                          
   -0.013821  4a 3b -> 12a 7b                                           
   -0.011852  4a 3b -> 12a 10b                                          
   -0.010163  5a 3b -> 19a 22b                                          
   -0.010175  5a 3b -> 22a 19b                                          
   -0.010163  5a 3b -> 20a 21b                                          
   -0.014788  5a 3b -> 11a 12b                                          
   -0.019162  5a 3b -> 25a 12b                                          
   -0.016430  5a 3b -> 11a 26b                                          
   -0.030659  5a 3b -> 25a 26b                                          
   -0.013821  5a 3b -> 12a 8b                                           
   -0.011852  5a 3b -> 12a 11b                                          
    0.021018  5a 2b -> 19a 8b                                           
   -0.011121  5a 2b -> 23a 8b                                           
    0.014963  5a 2b -> 28a 8b                                           
    0.015758  5a 2b -> 19a 11b                                          
    0.012955  5a 2b -> 28a 11b                                          
   -0.011663  5a 2b -> 27a 25b                                          
    0.021018  5a 2b -> 20a 7b                                           
    0.014963  5a 2b -> 29a 7b                                           
    0.015758  5a 2b -> 20a 10b                                          
    0.012955  5a 2b -> 29a 10b                                          
   -0.015487  5a 2b -> 25a 13b                                          
   -0.010191  5a 2b -> 11a 27b                                          
   -0.022649  5a 2b -> 25a 27b                                          
   -0.021018  4a 2b -> 19a 7b                                           
   -0.011121  4a 2b -> 23a 7b                                           
   -0.014963  4a 2b -> 28a 7b                                           
   -0.015758  4a 2b -> 19a 10b                                          
   -0.012955  4a 2b -> 28a 10b                                          
   -0.011663  4a 2b -> 27a 24b                                          
    0.021018  4a 2b -> 20a 8b                                           
    0.014963  4a 2b -> 29a 8b                                           
    0.015758  4a 2b -> 20a 11b                                          
    0.012955  4a 2b -> 29a 11b                                          
   -0.015487  4a 2b -> 24a 13b                                          
   -0.010191  4a 2b -> 10a 27b                                          
   -0.022649  4a 2b -> 24a 27b                                          
   -0.011212  2a 3b -> 13a 12b                                          
   -0.011906  2a 3b -> 27a 12b                                          
   -0.015282  2a 3b -> 13a 26b                                          
   -0.023199  2a 3b -> 27a 26b                                          
   -0.011064  3a 2b -> 27a 26b                                          
    0.020303  3a 2b -> 21a 7b                                           
    0.014473  3a 2b -> 31a 7b                                           
    0.015135  3a 2b -> 21a 10b                                          
    0.012559  3a 2b -> 31a 10b                                          
    0.020303  3a 2b -> 22a 8b                                           
    0.014473  3a 2b -> 30a 8b                                           
    0.015135  3a 2b -> 22a 11b                                          
    0.012559  3a 2b -> 30a 11b                                          
   -0.010636  2a 3b -> 26a 27b                                          
   -0.010859  3a 2b -> 12a 13b                                          
   -0.015677  3a 2b -> 26a 13b                                          
   -0.010747  3a 2b -> 12a 27b                                          
   -0.022923  3a 2b -> 26a 27b                                          
    0.010698  3a 4a -> 10a 12a                                          
    0.013161  3a 4a -> 21a 23a                                          
   -0.014297  3a 4a -> 12a 24a                                          
    0.013069  3a 4a -> 10a 26a                                          
    0.024130  3a 4a -> 24a 26a                                          
    0.010698  3a 5a -> 11a 12a                                          
    0.013161  3a 5a -> 22a 23a                                          
   -0.014297  3a 5a -> 12a 25a                                          
    0.013069  3a 5a -> 11a 26a                                          
    0.024130  3a 5a -> 25a 26a                                          
    0.013661  4a 5a -> 19a 20a                                          
    0.013225  4a 5a -> 11a 24a                                          
   -0.013225  4a 5a -> 10a 25a                                          
   -0.024549  4a 5a -> 24a 25a                                          
[...]
 ==============================================================================
 Norm of residual vector:     1.7887E-10
 CPU time [hr]:    32.761                          Wall time [hr]:     9.489
 
 Iteration 18  CC energy:   -74.95655709          Energy decrease:   3.1264E-13
 Step      18  CC energy:   -74.956557089877862   Energy change  :   3.1264E-13
 ==============================================================================
 Norm of residual vector:     8.4954E-11
 CPU time [hr]:    34.623                          Wall time [hr]:    10.031
 
 Iteration 19  CC energy:   -74.95655709          Energy decrease:   2.4158E-13
 Step      19  CC energy:   -74.956557089878103   Energy change  :   2.4158E-13
 ==============================================================================
 
 Iteration has converged in 19 steps.
 
 Final results:
 Total CC(6) energy [au]:                     -74.956557089878
 
 Perturbative corrections are calculated...
 ==============================================================================
 Spin case  1   Alpha:  4   Beta:  3
 Number of excitations:        107290496
 ispcorr1 :                     0.000000000000000000
 ispcorr2 :                     0.000000000000000000
 corr1    :                     0.000000000000000000
 corr2    :                     0.000000000000000000
 CPU time [min]:  4853.116                   Wall time [min]:  1341.121
 ======================================================================
 Spin case  2   Alpha:  5   Beta:  2
 Number of excitations:        33658548
 ispcorr1 :                     0.000000000000000000
 ispcorr2 :                     0.000000000000000000
 corr1    :                     0.000000000000000000
 corr2    :                     0.000000000000000000
 CPU time [min]:  6180.500                   Wall time [min]:  1680.309
 ======================================================================
 Number of 7-fold excitations: 140949044
 
 T_3^+ contribution [au]:                                   0.000000000000890386
 T_1^+ * T_2^+ contribution [au]:                           0.000000000000371072
 T_1^+ * <ab||ij> contribution [au]:                        0.000000000000573539
 T_2^+ * f_ai contribution [au]:                            0.000000000000000000
 corr1 :                     0.000000000000890386
 corr3 :                     0.000000000000371072
 corr4 :                     0.000000000000573539
 T_2^+ contribution [au]:                                   0.000000000017308901
 corr2 :                     0.000000000017308901
 corr3 :                     0.000000000000371072
 corr4 :                     0.000000000000573539
 T_2^+ contribution [au]:                                   0.000000000008388876
 corr2 :                     0.000000000025697777
 corr3 :                     0.000000000000371072
 corr4 :                     0.000000000000573539
 
 T_3^+ contribution [au]:                                  -0.000000000003354041
 T_1^+ * T_2^+ contribution [au]:                           0.000000000001149617
 T_1^+ * <ab||ij> contribution [au]:                        0.000000000001405557
 T_2^+ * f_ai contribution [au]:                            0.000000000000000000
 corr1 :                    -0.000000000003354041
 corr3 :                     0.000000000001520689
 corr4 :                     0.000000000001979096
 T_2^+ contribution [au]:                                   0.000000000032122856
 corr2 :                     0.000000000032122856
 corr3 :                     0.000000000001520689
 corr4 :                     0.000000000001979096
 T_2^+ contribution [au]:                                   0.000000000009045369
 corr2 :                     0.000000000041168224
 corr3 :                     0.000000000001520689
 corr4 :                     0.000000000001979096
 
 CPU time [min]:  6184.663                   Wall time [min]:  1682.382
 
 Total CC(6)[7] energy [au]:                  -74.956557089839
 Total CC(6)(7)/A energy [au]:                -74.956557089839
 Total CC(6)(7)/B energy [au]:                -74.956557089838
 
 Dominant cluster amplitudes
 Printing threshold:  1.00E-02
 
    1.000000  Reference determinant                                     
    0.012385  3b -> 12b                                                 
    0.011188  5a -> 11a                                                 
    0.011188  4a -> 10a                                                 
    0.014569  3a -> 12a                                                 
    0.011154  2b 3b -> 7b 21b                                           
    0.011154  2b 3b -> 8b 22b                                           
    0.011602  2b 3b -> 26b 27b                                          
   -0.010114  2a 2b -> 27a 13b                                          
   -0.010113  2a 2b -> 13a 27b                                          
   -0.017431  2a 2b -> 27a 27b                                          
   -0.018395  3a 3b -> 23a 19b                                          
   -0.010453  3a 3b -> 32a 19b                                          
   -0.010888  3a 3b -> 27a 27b                                          
   -0.010916  3a 3b -> 23a 28b                                          
   -0.014121  3a 3b -> 32a 28b                                          
   -0.014268  3a 3b -> 21a 21b                                          
   -0.010887  3a 3b -> 31a 31b                                          
   -0.014268  3a 3b -> 22a 22b                                          
   -0.010887  3a 3b -> 30a 30b                                          
   -0.010648  2a 2b -> 25a 25b                                          
   -0.010648  2a 2b -> 24a 24b                                          
   -0.021426  3a 3b -> 12a 12b                                          
   -0.025486  3a 3b -> 26a 12b                                          
   -0.023927  3a 3b -> 12a 26b                                          
   -0.042517  3a 3b -> 26a 26b                                          
    0.010163  4a 3b -> 19a 21b                                          
   -0.010174  4a 3b -> 21a 19b                                          
   -0.010163  4a 3b -> 20a 22b                                          
   -0.014786  4a 3b -> 10a 12b                                          
   -0.019162  4a 3b -> 24a 12b                                          
   -0.016430  4a 3b -> 10a 26b                                          
   -0.030660  4a 3b -> 24a 26b                                          
   -0.013820  4a 3b -> 12a 7b                                           
   -0.011852  4a 3b -> 12a 10b                                          
   -0.010163  5a 3b -> 19a 22b                                          
   -0.010174  5a 3b -> 22a 19b                                          
   -0.010163  5a 3b -> 20a 21b                                          
   -0.014786  5a 3b -> 11a 12b                                          
   -0.019162  5a 3b -> 25a 12b                                          
   -0.016430  5a 3b -> 11a 26b                                          
   -0.030660  5a 3b -> 25a 26b                                          
   -0.013820  5a 3b -> 12a 8b                                           
   -0.011852  5a 3b -> 12a 11b                                          
    0.021018  5a 2b -> 19a 8b                                           
   -0.011121  5a 2b -> 23a 8b                                           
    0.014964  5a 2b -> 28a 8b                                           
    0.015758  5a 2b -> 19a 11b                                          
    0.012955  5a 2b -> 28a 11b                                          
   -0.011664  5a 2b -> 27a 25b                                          
    0.021018  5a 2b -> 20a 7b                                           
    0.014964  5a 2b -> 29a 7b                                           
    0.015758  5a 2b -> 20a 10b                                          
    0.012955  5a 2b -> 29a 10b                                          
   -0.015487  5a 2b -> 25a 13b                                          
   -0.010191  5a 2b -> 11a 27b                                          
   -0.022650  5a 2b -> 25a 27b                                          
   -0.021018  4a 2b -> 19a 7b                                           
   -0.011121  4a 2b -> 23a 7b                                           
   -0.014964  4a 2b -> 28a 7b                                           
   -0.015758  4a 2b -> 19a 10b                                          
   -0.012955  4a 2b -> 28a 10b                                          
   -0.011664  4a 2b -> 27a 24b                                          
    0.021018  4a 2b -> 20a 8b                                           
    0.014964  4a 2b -> 29a 8b                                           
    0.015758  4a 2b -> 20a 11b                                          
    0.012955  4a 2b -> 29a 11b                                          
   -0.015487  4a 2b -> 24a 13b                                          
   -0.010191  4a 2b -> 10a 27b                                          
   -0.022650  4a 2b -> 24a 27b                                          
   -0.011210  2a 3b -> 13a 12b                                          
   -0.011906  2a 3b -> 27a 12b                                          
   -0.015282  2a 3b -> 13a 26b                                          
   -0.023200  2a 3b -> 27a 26b                                          
   -0.011064  3a 2b -> 27a 26b                                          
    0.020303  3a 2b -> 21a 7b                                           
    0.014473  3a 2b -> 31a 7b                                           
    0.015135  3a 2b -> 21a 10b                                          
    0.012560  3a 2b -> 31a 10b                                          
    0.020303  3a 2b -> 22a 8b                                           
    0.014473  3a 2b -> 30a 8b                                           
    0.015135  3a 2b -> 22a 11b                                          
    0.012560  3a 2b -> 30a 11b                                          
   -0.010636  2a 3b -> 26a 27b                                          
   -0.010858  3a 2b -> 12a 13b                                          
   -0.015677  3a 2b -> 26a 13b                                          
   -0.010747  3a 2b -> 12a 27b                                          
   -0.022924  3a 2b -> 26a 27b                                          
    0.010696  3a 4a -> 10a 12a                                          
    0.013160  3a 4a -> 21a 23a                                          
   -0.014297  3a 4a -> 12a 24a                                          
    0.013070  3a 4a -> 10a 26a                                          
    0.024131  3a 4a -> 24a 26a                                          
    0.010696  3a 5a -> 11a 12a                                          
    0.013160  3a 5a -> 22a 23a                                          
   -0.014297  3a 5a -> 12a 25a                                          
    0.013070  3a 5a -> 11a 26a                                          
    0.024131  3a 5a -> 25a 26a                                          
    0.013660  4a 5a -> 19a 20a                                          
    0.013225  4a 5a -> 11a 24a                                          
   -0.013225  4a 5a -> 10a 25a                                          
   -0.024551  4a 5a -> 24a 25a                                          
    0.011189  4a 5a -> 28a 29a                                          
    0.013162  2a 5a -> 25a 27a                                          
    0.013162  2a 4a -> 24a 27a                                          
    0.013068  2a 3a -> 26a 27a                                          

 ************************ 2026-04-15 02:27:45 *************************
 Executing goldstone...

 Generation of CC equations in terms of H and T...
 Generation of antisymmetrized Goldstone diagrams...
 Number of diagrams in T^1 equations:    15
 Number of diagrams in T^2 equations:    38
 Number of diagrams in T^3 equations:    54
 Number of diagrams in T^4 equations:    81
 Number of diagrams in T^5 equations:   106
 Number of diagrams in T^6 equations:   142
 Number of diagrams in T^7 equations:   172
 Number of diagrams in T^8 equations:    30
 Translation of diagrams to factorized equations...
 Optimizing intermediate calculation...
 Number of floating-point operations per iteration step:   1.6144E+14
 Probable CPU time per iteration step (hours):         1614.39
 Required memory (Mbytes):         18419.5
 Number of intermediates:                                 278
 Number of intermediates to be stored:                    111
 Length of intermediate file (Mbytes):         35636.0

 ************************ 2026-04-15 02:27:55 *************************
 Executing xmrcc...

 **********************************************************************
 CC(7)(8) calculation 
 
 
 Allocation of       332800.0 Mbytes of memory...
 Number of spinorbitals:                    72
 Number of alpha electrons:                        5
 Number of beta electrons:                         3
 Spin multiplicity:                     2
 z-component of spin:  1.0
 Spatial symmetry:                      4
 Convergence criterion:  1.0E-10
 Construction of occupation graphs...
 Number of                     0 -fold excitations:                      1
 Number of                     1 -fold excitations:                     56
 Number of                     2 -fold excitations:                   3084
 Number of                     3 -fold excitations:                  96218
 Number of                     4 -fold excitations:                1603297
 Number of                     5 -fold excitations:               14041338
 Number of                     6 -fold excitations:               63929572
 Number of                     7 -fold excitations:              140949044
 Total number of configurations:              220622610
 Calculation of coupling coefficients...
 Length of intermediate file (Mbytes):         18416.6
 
 ======================================================================
 
 Spin case  1   Alpha:  5   Beta:  3
 Number of excitations:              115875270
 Number of                     8 -fold excitations:              115875270
 
 Memory requirements /Mbyte/: 
               Minimal        Optimal
 Real*8:      18482.2754     18482.2754
 Integer:       150.2934
 Total:       18632.5689     18632.5689
 

 ************************ 2026-04-15 02:28:01 *************************
 Executing mrcc...

 **********************************************************************
 CC(7)(8) calculation                                                   
 
 
 OpenMP parallel version is running.
 Number of CPU cores:   4
 Allocation of        18482.3 Mbytes of memory...
 Number of spinorbitals:  72
 Number of alpha electrons:  5
 Number of beta  electrons:  3
 Spin multiplicity: 3
 z-component of spin:  1.0
 Spatial symmetry: 4
 Convergence criterion:  1.0E-10
 Construction of occupation graphs...
 Number of 0-fold excitations: 1
 Number of 1-fold excitations: 56
 Number of 2-fold excitations: 3084
 Number of 3-fold excitations: 96218
 Number of 4-fold excitations: 1603297
 Number of 5-fold excitations: 14041338
 Number of 6-fold excitations: 63929572
 Number of 7-fold excitations: 140949044
 Total number of determinants: 220622610
 Calculation of coupling coefficients...
 Initial cluster amplitudes are read from unit 16.
 Length of intermediate file (Mbytes):   18416.6
 Reading integral list from unit 55...
 Sorting integrals...
 Sorting integrals...
 Sorting integrals...
 Sorting integrals...
 Energy of reference determinant [au]:     -74.787686087594
 Calculation of MP denominators...
 
 Starting CC iteration...
 ==============================================================================
 Norm of residual vector:     0.00005819
 CPU time [hr]:     9.715                          Wall time [hr]:     2.734
 
 Iteration  1  CC energy:   -74.95655709          Energy decrease:   1.1369E-13
 Step       1  CC energy:   -74.956557089878217   Energy change  :   1.1369E-13
 ==============================================================================
 Norm of residual vector:     0.00000401
 CPU time [hr]:    20.371                          Wall time [hr]:     5.693
 
 Iteration  2  CC energy:   -74.95655709          Energy decrease:   4.2633E-14
 Step       2  CC energy:   -74.956557089878260   Energy change  :   4.2633E-14
 ==============================================================================
 Norm of residual vector:     0.00000055
 CPU time [hr]:    30.131                          Wall time [hr]:     8.414
 
 Iteration  3  CC energy:   -74.95655709          Energy decrease:   1.4211E-14
 Step       3  CC energy:   -74.956557089878274   Energy change  :   1.4211E-14
 ==============================================================================
 Norm of residual vector:     0.00000009
 CPU time [hr]:    39.108                          Wall time [hr]:    10.946
 
 Iteration  4  CC energy:   -74.95655709          Energy decrease:   2.6631E-11
 Step       4  CC energy:   -74.956557089851643   Energy change  :   2.6631E-11
 ==============================================================================
 Norm of residual vector:     0.00000002
 CPU time [hr]:    47.982                          Wall time [hr]:    13.448
 
 Iteration  5  CC energy:   -74.95655709          Energy decrease:   5.8407E-12
 Step       5  CC energy:   -74.956557089845802   Energy change  :   5.8407E-12
 ==============================================================================
 Norm of residual vector:     0.00000001
 CPU time [hr]:    56.907                          Wall time [hr]:    15.975
 
 Iteration  6  CC energy:   -74.95655709          Energy decrease:   1.4126E-11
 Step       6  CC energy:   -74.956557089859928   Energy change  :   1.4126E-11
 ==============================================================================
 Norm of residual vector:     1.6490E-09
 CPU time [hr]:    65.813                          Wall time [hr]:    18.492
 
 Iteration  7  CC energy:   -74.95655709          Energy decrease:   2.4158E-12
 Step       7  CC energy:   -74.956557089862343   Energy change  :   2.4158E-12
 ==============================================================================
 Norm of residual vector:     6.6724E-10
 CPU time [hr]:    74.734                          Wall time [hr]:    21.030
 
 Iteration  8  CC energy:   -74.95655709          Energy decrease:   1.5632E-13
 Step       8  CC energy:   -74.956557089862187   Energy change  :   1.5632E-13
 ==============================================================================
 Norm of residual vector:     2.1819E-10
 CPU time [hr]:    83.618                          Wall time [hr]:    23.550
 
 Iteration  9  CC energy:   -74.95655709          Energy decrease:   7.9581E-13
 Step       9  CC energy:   -74.956557089861391   Energy change  :   7.9581E-13
 ==============================================================================
 Norm of residual vector:     9.4055E-11
 CPU time [hr]:    92.469                          Wall time [hr]:    26.057
 
 Iteration 10  CC energy:   -74.95655709          Energy decrease:   7.1054E-13
 Step      10  CC energy:   -74.956557089860681   Energy change  :   7.1054E-13
 ==============================================================================
 
 Iteration has converged in 10 steps.
 
 Final results:
 Total CC(7) energy [au]:                     -74.956557089861
 
 Perturbative corrections are calculated...
 ==============================================================================
 Spin case  1   Alpha:  5   Beta:  3
 Number of excitations:        115875270
