Starting run at: Mon 18 Aug 2025 09:34:02 PM EDT
 **********************************************************************
                          MRCC program system
 **********************************************************************
 
                              Written by
     Mihaly Kallay, Peter R. Nagy, David Mester, Laszlo Gyevi-Nagy,
        Jozsef Csoka, P. Bernat Szabo, Zoltan Rolik, Gyula Samu,
      Bence Hegely, Bence Ladoczki, Klara Petrov, Jozsef Csontos,
     Adam Ganyecz, Istvan Ladjanszki, Lorant Szegedy, Mate Farkas,
          Pal D. Mezei, Reka A. Horvath, and Balazs D. Lorincz
 
        Department of Physical Chemistry and Materials Science
            Budapest University of Technology and Economics
                  Budapest P.O.Box 91, H-1521 Hungary
 
                              www.mrcc.hu
 
                            Version: 25.1.1

 ************************ 2025-08-18 21:34:03 *************************
 Executing minp...

 Reading input from MINP...
 
 Input file:
 
basis=aCVTZ-EMSL-U
iface=cfour
uncontract=off
calc=CC(5)(6)
ccprog=mrcc
mem=32GB
core=corr
itol=18
scftol=13
cctol=6
ccmaxit=999
scfmaxit=9999
scfiguess=ao
scftype=UHF
#rohftype=semicanonical
rest=2
charge=+0
mult=3
refdet=serialno
1-3
4,5

symm=2
occ=2,0,0,0,0,1,1,1/2,0,0,0,0,0,0,1
geom
O

#Li 1 R
#R=3.065

#unit=angstroms

tprint=0.01
verbosity=3
#nstate=4
 
 
 Checking keyword combinations...
 
 Keywords:
 
 active=none
 agrid=ld0006-ld0590
 agrid_pssp=ld0006-ld0194
 agrid_pssp_sm=ld0006-ld0074
 basis=acvtz-emsl-u
 basis_sm=none
 basopt=off
 bfbasis=none
 bfgsmem=10
 bfgstol=1.0d-3
 boysalg=jacobi
 bpcompo=0.985
 bpcompv=0.98
 bpdfo=0.985
 bpocc=0.985
 bppdo=0.985
 bppdv=0.98
 bpedo=0.985
 bpedv=0.98
 bp_subsyso=0.95
 bp_subsysv=0.95
 cabscorr=off
 cabsdual=off
 calc=cc(5)(6)
 ccmaxit=999
 ccprog=mrcc
 ccsdalg=disk
 ccsdmkl=seq
 ccsdrest=off
 ccsdthreads=2
 cctol=6
 charge=+0
 cialg=disk
 ciguess=off
 cmpgrp=auto
 comprest=off
 coord_sys=ric
 core=corr
 corembed=off
 csapprox=off
 cvs=off
 dboc=off
 deltaf12=off
 delocsomofact=
 dendec=cholesky
 dens=0
 denscorr=0
 dfalg=lineq
 dfbasis_cab=none
 dfbasis_cor=none
 dfbasis_scf=none
 dfbasis_scf_sm=auto
 dfintran=ovirt
 dft=off
 dhexc=adc(2)
 diag=david
 docc=
 domrad=10.d0
 drpaalg=fit
 dual=off
 dual_df=off
 dyson=off
 ecp=auto
 edisp=off
 edisp_embed=off
 embed=off
 epairestfact=off
 epairscale=1.d0
 etemp=300
 epert=none
 eps=
 espcharge=off
 excrad=0.d0
 excrad_f12=0.d0
 excrad_fin=0.000000000D+00
 fastdbbsc=v2
 fitting=coulomb
 fmm=off
 fmmord=8
 fnonorb=
 freq=off
 gamma=1.d0
 gauss=spher
 geom=zmat
 gopt=off
 ghost=none
 gtol=7
 grdens=off
 grid=auto
 grid_sm=auto
 gridbatch_cos=2000
 grtol=10
 guido_ct=off
 hamilton=dc
 iface=cfour
 incore=off
 intalg=auto
 ip_ea=off
 itol=18
 laptol=1.d-2
 lccoporder=trffirst
 lcorthr=normal
 lccrest=off
 ldfgrad_tol=8
 lmp2dens=on
 lnoepso=0.d0
 lnoepsv=1e-6
 localcc=off
 localcorrsymm=off
 locintrf=disk
 mact=
 maxact=off
 maxdim=200
 maxex=0
 maxmicroit=100
 mcscfiguess=hf
 mem=32gb
 mmprog=
 molden=on
 mp2ongrid=off
 mpitasks=1
 mulmet=0
 mult=3
 nab=off
 nacto=0
 nactv=0
 naf_amp=3.16d-3
 naf_cor=off
 naf_f12=off
 naf_scf=off
 nafalg=albe
 nafdens=off
 naftyp=
 nchol=auto
 ndeps=1e-3
 nstate=1
 nsing=0
 nto=off
 ntrip=0
 num_grad=off
 occ=2,0,0,0,0,1,1,1/2,0,0,0,0,0,0,1
 occri=off
 oniom=off
 oniom_eechg=off
 oniom_pcm=off
 oniom_qcorr=off
 optalg=
 optmaxit=50
 optetol=1e-6
 optex=0
 optgtol=1e-4
 optstol=1e-3
 orblocc=off
 orbloce=off
 orbloco=off
 orblocv=off
 orblocguess=cholesky
 osveps=1e-3
 ovirt=off
 ovltol=1e-7
 ovosnorb=80.0
 pao_subsys_tol=1e-3
 pao_tol=1e-3
 pcm=off
 popul=off
 pressure=100000
 pssp=off
 ptfreq=0.0
 ptthreads=2
 qmreg=
 qmmm=off
 qro=off
 qscf=off
 redcost_exc=off
 redcost_tddft=off
 refdet=serialno
 rest=2
 rgrid=log3
 rism=off
 rohfcore=semicanonical
 rohftype=semicanonical
 scfalg=auto
 scf_conv=auto
 scfdamp=0.0d0
 scfdamp_mode=off
 scfdamp_end=9999
 scfdamp_dampstep=0.d0
 scfdamp_dtol=0.0d0
 scfdamp_maxfact=0.0d0
 scfdamp_minfact=0.0d0
 scfdiis=on
 scfdiis_dtol=0.0d0
 scfdiis_end=9999
 scfdiis_start=2
 scfdiis_step=1
 scfdiis_watch=off
 scfdiis_wrange=10
 scfdiis_wlimit=5
 scfdiis_delmax=2
 scfdtol=14
 scfext=10
 scfguessdens=
 scfiguess=ao
 scfloc=off
 scflshift=0.20
 scflshift_end=8
 scflshift_dtol=0.0
 scflshift_gaptol=0.20
 scfmaxit=9999
 scftype=uhf
 scftol=13
 scspe=1.d0
 scsph=1.d0
 scsps=1.2d0
 scsps_t=1.2d0
 scspt=0.33333333333333
 scspt_t=0.33333333333333
 scspv=1.d0
 spairtol=1e-4
 sqmprog=
 subminp=top
 subsys_bopu=on
 symm=2
 talg=occ
 temp=298.15
 test=off
 theodore=off
 tlmo=0.999
 tpao=0.94
 tprint=0.01
 uncontract=off
 unit=angs
 usedisk=2
 verbosity=3
 wpairtol=0.100000000E-05
 ispstart=
 ispend=

 ************************ 2025-08-18 21:45:23 *************************
 Executing goldstone...

 Generation of CC equations in terms of H and T...
 Generation of antisymmetrized Goldstone diagrams...
 Number of diagrams in T^1 equations:    15
 Number of diagrams in T^2 equations:    38
 Number of diagrams in T^3 equations:    54
 Number of diagrams in T^4 equations:    81
 Number of diagrams in T^5 equations:   102
 Number of diagrams in T^6 equations:    14
 Translation of diagrams to factorized equations...
 Optimizing intermediate calculation...
 Number of floating-point operations per iteration step:   2.8225E+14
 Probable CPU time per iteration step (hours):         2822.48
 Required memory (Mbytes):        191672.7
 Number of intermediates:                                 164
 Number of intermediates to be stored:                     69
 Length of intermediate file (Mbytes):         65800.0

 ************************ 2025-08-18 21:45:23 *************************
 Executing xmrcc...

 **********************************************************************
 CC(5)(6) calculation 
 
 
 Allocation of        32768.0 Mbytes of memory...
 Number of spinorbitals:                   142
 Number of alpha electrons:                        5
 Number of beta electrons:                         3
 Spin multiplicity:                     2
 z-component of spin:  1.0
 Spatial symmetry:                      2
 Convergence criterion:  1.0E-06
 Construction of occupation graphs...
 Number of                     0 -fold excitations:                      1
 Number of                     1 -fold excitations:                    120
 Number of                     2 -fold excitations:                  13853
 Number of                     3 -fold excitations:                 913318
 Number of                     4 -fold excitations:               32526960
 Number of                     5 -fold excitations:              617559394
 Total number of configurations:              651013646
 Calculation of coupling coefficients...
 Length of intermediate file (Mbytes):         37535.0
 
 ======================================================================
 
 Spin case  1   Alpha:  3   Beta:  3
 Number of excitations:             2866282100
 Spin case  2   Alpha:  4   Beta:  2
 Number of excitations:             3076070060
 Spin case  3   Alpha:  5   Beta:  1
 Number of excitations:              227789310
 Number of                     6 -fold excitations:             6170141470
 
 Memory requirements /Mbyte/: 
               Minimal        Optimal
 Real*8:      51432.9801     51432.9801
 Integer:      5847.1650
 Total:       57280.1450     57280.1450
 

 ************************ 2025-08-18 21:47:36 *************************
 Executing goldstone...

 Generation of CC equations in terms of H and T...
 Generation of antisymmetrized Goldstone diagrams...
 Number of diagrams in T^1 equations:    15
 Number of diagrams in T^2 equations:    38
 Number of diagrams in T^3 equations:    54
 Number of diagrams in T^4 equations:    81
 Number of diagrams in T^5 equations:   102
 Number of diagrams in T^6 equations:    14
 Translation of diagrams to factorized equations...
 Optimizing intermediate calculation...
 Number of floating-point operations per iteration step:   2.8225E+14
 Probable CPU time per iteration step (hours):         2822.48
 Required memory (Mbytes):        191672.7
 Number of intermediates:                                 164
 Number of intermediates to be stored:                     69
 Length of intermediate file (Mbytes):         65800.0

 ************************ 2025-08-18 21:47:54 *************************
 Executing xmrcc...

 **********************************************************************
 CC(5)(6) calculation 
 
 
 Allocation of        32768.0 Mbytes of memory...
 Number of spinorbitals:                   142
 Number of alpha electrons:                        5
 Number of beta electrons:                         3
 Spin multiplicity:                     2
 z-component of spin:  1.0
 Spatial symmetry:                      2
 Convergence criterion:  1.0E-06
 Construction of occupation graphs...
 Number of                     0 -fold excitations:                      1
 Number of                     1 -fold excitations:                    120
 Number of                     2 -fold excitations:                  13853
 Number of                     3 -fold excitations:                 913318
 Number of                     4 -fold excitations:               32526960
 Number of                     5 -fold excitations:              617559394
 Total number of configurations:              651013646
 Calculation of coupling coefficients...
 Length of intermediate file (Mbytes):         37535.0
 
 ======================================================================
 
 Spin case  1   Alpha:  3   Beta:  3
 Number of excitations:             2866282100
 Spin case  2   Alpha:  4   Beta:  2
 Number of excitations:             3076070060
 Spin case  3   Alpha:  5   Beta:  1
 Number of excitations:              227789310
 Number of                     6 -fold excitations:             6170141470
 
 Memory requirements /Mbyte/: 
               Minimal        Optimal
 Real*8:      38136.1483     38136.1483
 Integer:      5847.1650
 Total:       43983.3133     43983.3133
 

 ************************ 2025-08-18 21:49:50 *************************
 Executing goldstone...

 Generation of MRCC equations in terms of H and T...
 Generation of antisymmetrized Goldstone diagrams...
 Number of diagrams in T^1 equations:    15
 Number of diagrams in T^2 equations:    38
 Number of diagrams in T^3 equations:    54
 Number of diagrams in T^4 equations:    81
 Number of diagrams in T^5 equations:   102
 Number of diagrams in T^6 equations:    14
 Translation of diagrams to factorized equations...
 Number of restricted diagrams in T^1 equations:     78
 Number of restricted diagrams in T^2 equations:    344
 Number of restricted diagrams in T^3 equations:    892
 Number of restricted diagrams in T^4 equations:   2035
 Number of restricted diagrams in T^5 equations:   3948
 Number of restricted diagrams in T^6 equations:    730
 Optimizing intermediate calculation...
 Number of floating-point operations per iteration step:   2.8184E+14
 Probable CPU time per iteration step (hours):         2818.39
 Required memory (Mbytes):         61237.9
 Number of intermediates:                                1662
 Number of intermediates to be stored:                    698
 Length of intermediate file (Mbytes):        273155.3

 ************************ 2025-08-18 21:49:52 *************************
 Executing xmrcc...

 **********************************************************************
 MRCC(                     6 ) calculation 
 
 
 Allocation of        32768.0 Mbytes of memory...
 Number of spinorbitals:                   142
 Number of alpha electrons:                        5
 Number of beta electrons:                         3
 Number of active particles:                    68
 Number of active holes:                         0
 Spin multiplicity:                     2
 z-component of spin:  1.0
 Spatial symmetry:                      2
 Convergence criterion:  1.0E-06
 Construction of occupation graphs...
 Number of                     0 -fold excitations:                      1
 Number of                     1 -fold excitations:                    120
 Number of                     2 -fold excitations:                  13853
 Number of                     3 -fold excitations:                 913318
 Number of                     4 -fold excitations:               32526960
 Number of                     5 -fold excitations:              617559394
 Total number of configurations:              651013646
 Calculation of coupling coefficients...
 Length of intermediate file (Mbytes):        155037.0
 
 ======================================================================
 
 Spin case  1   Alpha:  3   Beta:  3
 Number of excitations:               44759744
 Spin case  2   Alpha:  4   Beta:  2
 Number of excitations:               48793624
 Spin case  3   Alpha:  5   Beta:  1
 Number of excitations:                3551436
 Spin case  4   Alpha:  3   Beta:  3
 Number of excitations:              134286600
 Spin case  5   Alpha:  3   Beta:  3
 Number of excitations:              142666280
 Spin case  6   Alpha:  4   Beta:  2
 Number of excitations:              201412392
 Spin case  7   Alpha:  4   Beta:  2
 Number of excitations:              100586048
 Spin case  8   Alpha:  5   Beta:  1
 Number of excitations:               18950016
 Spin case  9   Alpha:  5   Beta:  1
 Number of excitations:                3554148
 Spin case 10   Alpha:  3   Beta:  3
 Number of excitations:              126151792
 Spin case 11   Alpha:  3   Beta:  3
 Number of excitations:              427973820
 Spin case 12   Alpha:  3   Beta:  3
 Number of excitations:              142658760
 Spin case 13   Alpha:  4   Beta:  2
 Number of excitations:              292564520
 Spin case 14   Alpha:  4   Beta:  2
 Number of excitations:              415004544
 Spin case 15   Alpha:  4   Beta:  2
 Number of excitations:               48829168
 Spin case 16   Alpha:  5   Beta:  1
 Number of excitations:               37849152
 Spin case 17   Alpha:  5   Beta:  1
 Number of excitations:               18971760
 Spin case 18   Alpha:  3   Beta:  3
 Number of excitations:               37104744
 Spin case 19   Alpha:  3   Beta:  3
 Number of excitations:              402053530
 Spin case 20   Alpha:  3   Beta:  3
 Number of excitations:              427889700
 Spin case 21   Alpha:  3   Beta:  3
 Number of excitations:               44755264
 Spin case 22   Alpha:  4   Beta:  2
 Number of excitations:              177302331
 Spin case 23   Alpha:  4   Beta:  2
 Number of excitations:              602404615
 Spin case 24   Alpha:  4   Beta:  2
 Number of excitations:              201390264
 Spin case 25   Alpha:  5   Beta:  1
 Number of excitations:               35415992
 Spin case 26   Alpha:  5   Beta:  1
 Number of excitations:               37854048
 Spin case 27   Alpha:  3   Beta:  3
 Number of excitations:              118275910
 Spin case 28   Alpha:  3   Beta:  3
 Number of excitations:              401978550
 Spin case 29   Alpha:  3   Beta:  3
 Number of excitations:              134234700
 Spin case 30   Alpha:  4   Beta:  2
 Number of excitations:               37824168
 Spin case 31   Alpha:  4   Beta:  2
 Number of excitations:              365017822
 Spin case 32   Alpha:  4   Beta:  2
 Number of excitations:              292175300
 Spin case 33   Alpha:  5   Beta:  1
 Number of excitations:               15565001
 Spin case 34   Alpha:  5   Beta:  1
 Number of excitations:               35378920
 Spin case 35   Alpha:  3   Beta:  3
 Number of excitations:              118279470
 Spin case 36   Alpha:  3   Beta:  3
 Number of excitations:              126104992
 Spin case 37   Alpha:  4   Beta:  2
 Number of excitations:               77930971
 Spin case 38   Alpha:  4   Beta:  2
 Number of excitations:              177019107
 Spin case 39   Alpha:  5   Beta:  1
 Number of excitations:                2572683
 Spin case 40   Alpha:  5   Beta:  1
 Number of excitations:               15549967
 Spin case 41   Alpha:  3   Beta:  3
 Number of excitations:               37108244
 Spin case 42   Alpha:  4   Beta:  2
 Number of excitations:               37815186
 Spin case 43   Alpha:  5   Beta:  1
 Number of excitations:                2576187
 Number of                     6 -fold excitations:             6170141470
 
 Memory requirements /Mbyte/: 
               Minimal        Optimal
 Real*8:      21188.9380     21188.9380
 Integer:      5978.7910
 Total:       27167.7290     27167.7290
 

 ************************ 2025-08-18 21:54:34 *************************
 Executing goldstone...

 Generation of MRCC equations in terms of H and T...
 Generation of antisymmetrized Goldstone diagrams...
 Number of diagrams in T^1 equations:    15
 Number of diagrams in T^2 equations:    34
 Number of diagrams in T^3 equations:     2
 Translation of diagrams to factorized equations...
 Number of restricted diagrams in T^1 equations:     78
 Number of restricted diagrams in T^2 equations:    299
 Number of restricted diagrams in T^3 equations:     18
 Optimizing intermediate calculation...
 Number of floating-point operations per iteration step:   5.6481E+08
 Probable CPU time per iteration step (hours):            0.01
 Required memory (Mbytes):          2653.9
 Number of intermediates:                                 239
 Number of intermediates to be stored:                    105
 Length of intermediate file (Mbytes):            49.4

 ************************ 2025-08-18 21:54:35 *************************
 Executing xmrcc...

 **********************************************************************
 MRCC(                     3 ) calculation 
 
 
 Allocation of        32768.0 Mbytes of memory...
 Number of spinorbitals:                   142
 Number of alpha electrons:                        5
 Number of beta electrons:                         3
 Number of active particles:                    68
 Number of active holes:                         0
 Spin multiplicity:                     2
 z-component of spin:  1.0
 Spatial symmetry:                      2
 Convergence criterion:  1.0E-06
 Construction of occupation graphs...
 Number of                     0 -fold excitations:                      1
 Number of                     1 -fold excitations:                    120
 Number of                     2 -fold excitations:                  13853
 Total number of configurations:                  13974
 Calculation of coupling coefficients...
 Length of intermediate file (Mbytes):            40.5
 
 ======================================================================
 
 Spin case  1   Alpha:  0   Beta:  3
 Number of excitations:                    740
 Spin case  2   Alpha:  1   Beta:  2
 Number of excitations:                  36177
 Spin case  3   Alpha:  2   Beta:  1
 Number of excitations:                  72049
 Spin case  4   Alpha:  3   Beta:  0
 Number of excitations:                   7512
 Spin case  5   Alpha:  0   Beta:  3
 Number of excitations:                   2414
 Spin case  6   Alpha:  1   Beta:  2
 Number of excitations:                  34224
 Spin case  7   Alpha:  1   Beta:  2
 Number of excitations:                  76246
 Spin case  8   Alpha:  2   Beta:  1
 Number of excitations:                 140866
 Spin case  9   Alpha:  2   Beta:  1
 Number of excitations:                  72410
 Spin case 10   Alpha:  3   Beta:  0
 Number of excitations:                  22230
 Spin case 11   Alpha:  0   Beta:  3
 Number of excitations:                   2445
 Spin case 12   Alpha:  1   Beta:  2
 Number of excitations:                  72607
 Spin case 13   Alpha:  1   Beta:  2
 Number of excitations:                  37599
 Spin case 14   Alpha:  2   Beta:  1
 Number of excitations:                  64610
 Spin case 15   Alpha:  2   Beta:  1
 Number of excitations:                 142374
 Spin case 16   Alpha:  3   Beta:  0
 Number of excitations:                  20466
 Spin case 17   Alpha:  0   Beta:  3
 Number of excitations:                    788
 Spin case 18   Alpha:  1   Beta:  2
 Number of excitations:                  36003
 Spin case 19   Alpha:  2   Beta:  1
 Number of excitations:                  65556
 Spin case 20   Alpha:  3   Beta:  0
 Number of excitations:                   6002
 Number of                     3 -fold excitations:                 913318
 
 Memory requirements /Mbyte/: 
               Minimal        Optimal
 Real*8:         47.6831       194.0338
 Integer:        27.6156
 Total:          75.2987       221.6493
 

 ************************ 2025-08-18 21:54:36 *************************
 Executing mrcc...

 **********************************************************************
 CCSD(T) calculation                                                    
 
 
 OpenMP parallel version is running.
 Number of CPU cores:   4
 Allocation of          194.0 Mbytes of memory...
 Number of spinorbitals: 142
 Number of alpha electrons:  5
 Number of beta  electrons:  3
 Number of active particles:                    68
 Number of active holes:                         0
 Spin multiplicity: 3
 z-component of spin:  1.0
 Spatial symmetry: 2
 Convergence criterion:  1.0E-06
 Construction of occupation graphs...
 Number of 0-fold excitations: 1
 Number of 1-fold excitations: 120
 Number of 2-fold excitations: 13853
 Total number of determinants: 13974
 Calculation of coupling coefficients...
 Initial cluster amplitudes are generated.
 Length of intermediate file (Mbytes):      40.5
 Reading integral list from unit 55...
 Sorting integrals...
 Sorting integrals...
 Sorting integrals...
 Sorting integrals...
 Energy of reference determinant [au]:     -74.700924586369
 Calculation of MP denominators...
 
 Starting CC iteration...
 ======================================================================
 Norm of residual vector:     2.87325264
 CPU time [min]:     0.217                   Wall time [min]:     0.096
 
 Iteration  1  CC energy:   -75.01265755  Energy decrease:   0.31173296
 ======================================================================
 Norm of residual vector:     0.38668647
 CPU time [min]:     0.293                   Wall time [min]:     0.116
 
 Iteration  2  CC energy:   -75.06908045  Energy decrease:   0.05642290
 ======================================================================
 Norm of residual vector:     0.11959282
 CPU time [min]:     0.369                   Wall time [min]:     0.135
 
 Iteration  3  CC energy:   -75.08993499  Energy decrease:   0.02085454
 ======================================================================
 Norm of residual vector:     0.03089507
 CPU time [min]:     0.445                   Wall time [min]:     0.154
 
 Iteration  4  CC energy:   -75.08436546  Energy decrease:   0.00556953
 ======================================================================
 Norm of residual vector:     0.01223951
 CPU time [min]:     0.520                   Wall time [min]:     0.173
 
 Iteration  5  CC energy:   -75.08830301  Energy decrease:   0.00393755
 ======================================================================
 Norm of residual vector:     0.00529146
 CPU time [min]:     0.596                   Wall time [min]:     0.192
 
 Iteration  6  CC energy:   -75.08797718  Energy decrease:   0.00032583
 ======================================================================
 Norm of residual vector:     0.00201328
 CPU time [min]:     0.672                   Wall time [min]:     0.211
 
 Iteration  7  CC energy:   -75.08775947  Energy decrease:   0.00021771
 ======================================================================
 Norm of residual vector:     0.00066686
 CPU time [min]:     0.748                   Wall time [min]:     0.230
 
 Iteration  8  CC energy:   -75.08785357  Energy decrease:   0.00009409
 ======================================================================
 Norm of residual vector:     0.00023905
 CPU time [min]:     0.824                   Wall time [min]:     0.249
 
 Iteration  9  CC energy:   -75.08784463  Energy decrease:   0.00000894
 ======================================================================
 Norm of residual vector:     0.00006037
 CPU time [min]:     0.900                   Wall time [min]:     0.268
 
 Iteration 10  CC energy:   -75.08784106  Energy decrease:   0.00000357
 ======================================================================
 Norm of residual vector:     0.00001861
 CPU time [min]:     0.977                   Wall time [min]:     0.288
 
 Iteration 11  CC energy:   -75.08784387  Energy decrease:   0.00000281
 ======================================================================
 Norm of residual vector:     0.00000524
 CPU time [min]:     1.053                   Wall time [min]:     0.307
 
 Iteration 12  CC energy:   -75.08784350  Energy decrease:   0.00000036
 ======================================================================
 Norm of residual vector:     0.00000158
 CPU time [min]:     1.129                   Wall time [min]:     0.326
 
 Iteration 13  CC energy:   -75.08784361  Energy decrease:   0.00000011
 ======================================================================
 Norm of residual vector:     0.00000047
 CPU time [min]:     1.206                   Wall time [min]:     0.345
 
 Iteration 14  CC energy:   -75.08784356  Energy decrease:   0.00000005
 ======================================================================
 
 Iteration has converged in 14 steps.
 
 Final results:
 Total CCSD energy [au]:                      -75.087843555330
 
 Perturbative corrections are calculated...
 ======================================================================
 Spin case  1   Alpha:  0   Beta:  3
 Number of excitations:        740
 ispcorr1 :     0.000000000000
 ispcorr2 :     0.000000000000
 corr1    :     0.000000000000
 corr2    :     0.000000000000
 ispcorr1 :     0.000000000000
 ispcorr2 :     0.000000000000
 corr1    :     0.000000000000
 corr2    :     0.000000000000
 ispcorr1 :     0.000000000000
 ispcorr2 :     0.000000000000
 corr1    :     0.000000000000
 corr2    :     0.000000000000
 ispcorr1 :     0.000000000000
 ispcorr2 :     0.000000000000
 corr1    :     0.000000000000
 corr2    :     0.000000000000
 CPU time [min]:     1.213                   Wall time [min]:     0.347
 ======================================================================
 Spin case  2   Alpha:  1   Beta:  2
 Number of excitations:        36177
 ispcorr1 :     0.000000000000
 ispcorr2 :     0.000000000000
 corr1    :     0.000000000000
 corr2    :     0.000000000000
 ispcorr1 :     0.000000000000
 ispcorr2 :     0.000000000000
 corr1    :     0.000000000000
 corr2    :     0.000000000000
 ispcorr1 :     0.000000000000
 ispcorr2 :     0.000000000000
 corr1    :     0.000000000000
 corr2    :     0.000000000000
 ispcorr1 :     0.000000000000
 ispcorr2 :     0.000000000000
 corr1    :     0.000000000000
 corr2    :     0.000000000000
 ispcorr1 :     0.000000000000
 ispcorr2 :     0.000000000000
 corr1    :     0.000000000000
 corr2    :     0.000000000000
 ispcorr1 :     0.000000000000
 ispcorr2 :     0.000000000000
 corr1    :     0.000000000000
 corr2    :     0.000000000000
 ispcorr1 :     0.000000000000
 ispcorr2 :     0.000000000000
 corr1    :     0.000000000000
 corr2    :     0.000000000000
 ispcorr1 :     0.000000000000
 ispcorr2 :     0.000000000000
 corr1    :     0.000000000000
 corr2    :     0.000000000000
 ispcorr1 :     0.000000000000
 ispcorr2 :     0.000000000000
 corr1    :     0.000000000000
 corr2    :     0.000000000000
 ispcorr1 :     0.000000000000
 ispcorr2 :     0.000000000000
 corr1    :     0.000000000000
 corr2    :     0.000000000000
 CPU time [min]:     1.252                   Wall time [min]:     0.357
 ======================================================================
 Spin case  3   Alpha:  2   Beta:  1
 Number of excitations:        72049
 ispcorr1 :     0.000000000000
 ispcorr2 :     0.000000000000
 corr1    :     0.000000000000
 corr2    :     0.000000000000
 ispcorr1 :     0.000000000000
 ispcorr2 :     0.000000000000
 corr1    :     0.000000000000
 corr2    :     0.000000000000
 ispcorr1 :     0.000000000000
 ispcorr2 :     0.000000000000
 corr1    :     0.000000000000
 corr2    :     0.000000000000
 ispcorr1 :     0.000000000000
 ispcorr2 :     0.000000000000
 corr1    :     0.000000000000
 corr2    :     0.000000000000
 ispcorr1 :     0.000000000000
 ispcorr2 :     0.000000000000
 corr1    :     0.000000000000
 corr2    :     0.000000000000
 ispcorr1 :     0.000000000000
 ispcorr2 :     0.000000000000
 corr1    :     0.000000000000
 corr2    :     0.000000000000
 ispcorr1 :     0.000000000000
 ispcorr2 :     0.000000000000
 corr1    :     0.000000000000
 corr2    :     0.000000000000
 ispcorr1 :     0.000000000000
 ispcorr2 :     0.000000000000
 corr1    :     0.000000000000
 corr2    :     0.000000000000
 ispcorr1 :     0.000000000000
 ispcorr2 :     0.000000000000
 corr1    :     0.000000000000
 corr2    :     0.000000000000
 ispcorr1 :     0.000000000000
 ispcorr2 :     0.000000000000
 corr1    :     0.000000000000
 corr2    :     0.000000000000
 CPU time [min]:     1.315                   Wall time [min]:     0.373
 ======================================================================
 Spin case  4   Alpha:  3   Beta:  0
 Number of excitations:        7512
 ispcorr1 :     0.000000000000
 ispcorr2 :     0.000000000000
 corr1    :     0.000000000000
 corr2    :     0.000000000000
 ispcorr1 :     0.000000000000
 ispcorr2 :     0.000000000000
 corr1    :     0.000000000000
 corr2    :     0.000000000000
 ispcorr1 :     0.000000000000
 ispcorr2 :     0.000000000000
 corr1    :     0.000000000000
 corr2    :     0.000000000000
 ispcorr1 :     0.000000000000
 ispcorr2 :     0.000000000000
 corr1    :     0.000000000000
 corr2    :     0.000000000000
 CPU time [min]:     1.321                   Wall time [min]:     0.374
 ======================================================================
 Spin case  5   Alpha:  0   Beta:  3
 Number of excitations:        2414
 ispcorr1 :     0.000000000000
 ispcorr2 :     0.000000000000
 corr1    :     0.000000000000
 corr2    :     0.000000000000
 ispcorr1 :     0.000000000000
 ispcorr2 :     0.000000000000
 corr1    :     0.000000000000
 corr2    :     0.000000000000
 ispcorr1 :     0.000000000000
 ispcorr2 :     0.000000000000
 corr1    :     0.000000000000
 corr2    :     0.000000000000
 ispcorr1 :     0.000000000000
 ispcorr2 :     0.000000000000
 corr1    :     0.000000000000
 corr2    :     0.000000000000
 ispcorr1 :     0.000000000000
 ispcorr2 :     0.000000000000
 corr1    :     0.000000000000
 corr2    :     0.000000000000
 ispcorr1 :     0.000000000000
 ispcorr2 :     0.000000000000
 corr1    :     0.000000000000
 corr2    :     0.000000000000
 ispcorr1 :     0.000000000000
 ispcorr2 :     0.000000000000
 corr1    :     0.000000000000
 corr2    :     0.000000000000
 CPU time [min]:     1.332                   Wall time [min]:     0.377
 ======================================================================
 Spin case  6   Alpha:  1   Beta:  2
 Number of excitations:        34224
 ispcorr1 :     0.000000000000
 ispcorr2 :     0.000000000000
 corr1    :     0.000000000000
 corr2    :     0.000000000000
 ispcorr1 :     0.000000000000
 ispcorr2 :     0.000000000000
 corr1    :     0.000000000000
 corr2    :     0.000000000000
 ispcorr1 :     0.000000000000
 ispcorr2 :     0.000000000000
 corr1    :     0.000000000000
 corr2    :     0.000000000000
 ispcorr1 :     0.000000000000
 ispcorr2 :     0.000000000000
 corr1    :     0.000000000000
 corr2    :     0.000000000000
 ispcorr1 :     0.000000000000
 ispcorr2 :     0.000000000000
 corr1    :     0.000000000000
 corr2    :     0.000000000000
 ispcorr1 :     0.000000000000
 ispcorr2 :     0.000000000000
 corr1    :     0.000000000000
 corr2    :     0.000000000000
 ispcorr1 :     0.000000000000
 ispcorr2 :     0.000000000000
 corr1    :     0.000000000000
 corr2    :     0.000000000000
 ispcorr1 :     0.000000000000
 ispcorr2 :     0.000000000000
 corr1    :     0.000000000000
 corr2    :     0.000000000000
 ispcorr1 :     0.000000000000
 ispcorr2 :     0.000000000000
 corr1    :     0.000000000000
 corr2    :     0.000000000000
 ispcorr1 :     0.000000000000
 ispcorr2 :     0.000000000000
 corr1    :     0.000000000000
 corr2    :     0.000000000000
 ispcorr1 :     0.000000000000
 ispcorr2 :     0.000000000000
 corr1    :     0.000000000000
 corr2    :     0.000000000000
 CPU time [min]:     1.374                   Wall time [min]:     0.387
 ======================================================================
 Spin case  7   Alpha:  1   Beta:  2
 Number of excitations:        76246
 ispcorr1 :     0.000000000000
 ispcorr2 :     0.000000000000
 corr1    :     0.000000000000
 corr2    :     0.000000000000
 ispcorr1 :     0.000000000000
 ispcorr2 :     0.000000000000
 corr1    :     0.000000000000
 corr2    :     0.000000000000
 ispcorr1 :     0.000000000000
 ispcorr2 :     0.000000000000
 corr1    :     0.000000000000
 corr2    :     0.000000000000
 ispcorr1 :     0.000000000000
 ispcorr2 :     0.000000000000
 corr1    :     0.000000000000
 corr2    :     0.000000000000
 ispcorr1 :     0.000000000000
 ispcorr2 :     0.000000000000
 corr1    :     0.000000000000
 corr2    :     0.000000000000
 ispcorr1 :     0.000000000000
 ispcorr2 :     0.000000000000
 corr1    :     0.000000000000
 corr2    :     0.000000000000
 ispcorr1 :     0.000000000000
 ispcorr2 :     0.000000000000
 corr1    :     0.000000000000
 corr2    :     0.000000000000
 ispcorr1 :     0.000000000000
 ispcorr2 :     0.000000000000
 corr1    :     0.000000000000
 corr2    :     0.000000000000
 ispcorr1 :     0.000000000000
 ispcorr2 :     0.000000000000
 corr1    :     0.000000000000
 corr2    :     0.000000000000
 ispcorr1 :     0.000000000000
 ispcorr2 :     0.000000000000
 corr1    :     0.000000000000
 corr2    :     0.000000000000
 ispcorr1 :     0.000000000000
 ispcorr2 :     0.000000000000
 corr1    :     0.000000000000
 corr2    :     0.000000000000
 ispcorr1 :     0.000000000000
 ispcorr2 :     0.000000000000
 corr1    :     0.000000000000
 corr2    :     0.000000000000
 ispcorr1 :     0.000000000000
 ispcorr2 :     0.000000000000
 corr1    :     0.000000000000
 corr2    :     0.000000000000
 ispcorr1 :     0.000000000000
 ispcorr2 :     0.000000000000
 corr1    :     0.000000000000
 corr2    :     0.000000000000
 ispcorr1 :     0.000000000000
 ispcorr2 :     0.000000000000
 corr1    :     0.000000000000
 corr2    :     0.000000000000
 ispcorr1 :     0.000000000000
 ispcorr2 :     0.000000000000
 corr1    :     0.000000000000
 corr2    :     0.000000000000
 ispcorr1 :     0.000000000000
 ispcorr2 :     0.000000000000
 corr1    :     0.000000000000
 corr2    :     0.000000000000
 CPU time [min]:     1.510                   Wall time [min]:     0.422
 ======================================================================
 Spin case  8   Alpha:  2   Beta:  1
 Number of excitations:        140866
 ispcorr1 :     0.000000000000
 ispcorr2 :     0.000000000000
 corr1    :     0.000000000000
 corr2    :     0.000000000000
 ispcorr1 :     0.000000000000
 ispcorr2 :     0.000000000000
 corr1    :     0.000000000000
 corr2    :     0.000000000000
 ispcorr1 :     0.000000000000
 ispcorr2 :     0.000000000000
 corr1    :     0.000000000000
 corr2    :     0.000000000000
 ispcorr1 :     0.000000000000
 ispcorr2 :     0.000000000000
 corr1    :     0.000000000000
 corr2    :     0.000000000000
 ispcorr1 :     0.000000000000
 ispcorr2 :     0.000000000000
 corr1    :     0.000000000000
 corr2    :     0.000000000000
 ispcorr1 :     0.000000000000
 ispcorr2 :     0.000000000000
 corr1    :     0.000000000000
 corr2    :     0.000000000000
 ispcorr1 :     0.000000000000
 ispcorr2 :     0.000000000000
 corr1    :     0.000000000000
 corr2    :     0.000000000000
 ispcorr1 :     0.000000000000
 ispcorr2 :     0.000000000000
 corr1    :     0.000000000000
 corr2    :     0.000000000000
 ispcorr1 :     0.000000000000
 ispcorr2 :     0.000000000000
 corr1    :     0.000000000000
 corr2    :     0.000000000000
 ispcorr1 :     0.000000000000
 ispcorr2 :     0.000000000000
 corr1    :     0.000000000000
 corr2    :     0.000000000000
 ispcorr1 :     0.000000000000
 ispcorr2 :     0.000000000000
 corr1    :     0.000000000000
 corr2    :     0.000000000000
 ispcorr1 :     0.000000000000
 ispcorr2 :     0.000000000000
 corr1    :     0.000000000000
 corr2    :     0.000000000000
 ispcorr1 :     0.000000000000
 ispcorr2 :     0.000000000000
 corr1    :     0.000000000000
 corr2    :     0.000000000000
 ispcorr1 :     0.000000000000
 ispcorr2 :     0.000000000000
 corr1    :     0.000000000000
 corr2    :     0.000000000000
 ispcorr1 :     0.000000000000
 ispcorr2 :     0.000000000000
 corr1    :     0.000000000000
 corr2    :     0.000000000000
 ispcorr1 :     0.000000000000
 ispcorr2 :     0.000000000000
 corr1    :     0.000000000000
 corr2    :     0.000000000000
 ispcorr1 :     0.000000000000
 ispcorr2 :     0.000000000000
 corr1    :     0.000000000000
 corr2    :     0.000000000000
 CPU time [min]:     1.726                   Wall time [min]:     0.476
 ======================================================================
 Spin case  9   Alpha:  2   Beta:  1
 Number of excitations:        72410
 ispcorr1 :     0.000000000000
 ispcorr2 :     0.000000000000
 corr1    :     0.000000000000
 corr2    :     0.000000000000
 ispcorr1 :     0.000000000000
 ispcorr2 :     0.000000000000
 corr1    :     0.000000000000
 corr2    :     0.000000000000
 ispcorr1 :     0.000000000000
 ispcorr2 :     0.000000000000
 corr1    :     0.000000000000
 corr2    :     0.000000000000
 ispcorr1 :     0.000000000000
 ispcorr2 :     0.000000000000
 corr1    :     0.000000000000
 corr2    :     0.000000000000
 ispcorr1 :     0.000000000000
 ispcorr2 :     0.000000000000
 corr1    :     0.000000000000
 corr2    :     0.000000000000
 ispcorr1 :     0.000000000000
 ispcorr2 :     0.000000000000
 corr1    :     0.000000000000
 corr2    :     0.000000000000
 ispcorr1 :     0.000000000000
 ispcorr2 :     0.000000000000
 corr1    :     0.000000000000
 corr2    :     0.000000000000
 ispcorr1 :     0.000000000000
 ispcorr2 :     0.000000000000
 corr1    :     0.000000000000
 corr2    :     0.000000000000
 ispcorr1 :     0.000000000000
 ispcorr2 :     0.000000000000
 corr1    :     0.000000000000
 corr2    :     0.000000000000
 ispcorr1 :     0.000000000000
 ispcorr2 :     0.000000000000
 corr1    :     0.000000000000
 corr2    :     0.000000000000
 ispcorr1 :     0.000000000000
 ispcorr2 :     0.000000000000
 corr1    :     0.000000000000
 corr2    :     0.000000000000
 CPU time [min]:     1.796                   Wall time [min]:     0.494
 ======================================================================
 Spin case 10   Alpha:  3   Beta:  0
 Number of excitations:        22230
 ispcorr1 :     0.000000000000
 ispcorr2 :     0.000000000000
 corr1    :     0.000000000000
 corr2    :     0.000000000000
 ispcorr1 :     0.000000000000
 ispcorr2 :     0.000000000000
 corr1    :     0.000000000000
 corr2    :     0.000000000000
 ispcorr1 :     0.000000000000
 ispcorr2 :     0.000000000000
 corr1    :     0.000000000000
 corr2    :     0.000000000000
 ispcorr1 :     0.000000000000
 ispcorr2 :     0.000000000000
 corr1    :     0.000000000000
 corr2    :     0.000000000000
 ispcorr1 :     0.000000000000
 ispcorr2 :     0.000000000000
 corr1    :     0.000000000000
 corr2    :     0.000000000000
 ispcorr1 :     0.000000000000
 ispcorr2 :     0.000000000000
 corr1    :     0.000000000000
 corr2    :     0.000000000000
 ispcorr1 :     0.000000000000
 ispcorr2 :     0.000000000000
 corr1    :     0.000000000000
 corr2    :     0.000000000000
 CPU time [min]:     1.824                   Wall time [min]:     0.501
 ======================================================================
 Spin case 11   Alpha:  0   Beta:  3
 Number of excitations:        2445
 ispcorr1 :     0.000000000000
 ispcorr2 :     0.000000000000
 corr1    :     0.000000000000
 corr2    :     0.000000000000
 ispcorr1 :     0.000000000000
 ispcorr2 :     0.000000000000
 corr1    :     0.000000000000
 corr2    :     0.000000000000
 ispcorr1 :     0.000000000000
 ispcorr2 :     0.000000000000
 corr1    :     0.000000000000
 corr2    :     0.000000000000
 ispcorr1 :     0.000000000000
 ispcorr2 :     0.000000000000
 corr1    :     0.000000000000
 corr2    :     0.000000000000
 ispcorr1 :     0.000000000000
 ispcorr2 :     0.000000000000
 corr1    :     0.000000000000
 corr2    :     0.000000000000
 ispcorr1 :     0.000000000000
 ispcorr2 :     0.000000000000
 corr1    :     0.000000000000
 corr2    :     0.000000000000
 ispcorr1 :     0.000000000000
 ispcorr2 :     0.000000000000
 corr1    :     0.000000000000
 corr2    :     0.000000000000
 CPU time [min]:     1.836                   Wall time [min]:     0.504
 ======================================================================
 Spin case 12   Alpha:  1   Beta:  2
 Number of excitations:        72607
 ispcorr1 :     0.000000000000
 ispcorr2 :     0.000000000000
 corr1    :     0.000000000000
 corr2    :     0.000000000000
 ispcorr1 :     0.000000000000
 ispcorr2 :     0.000000000000
 corr1    :     0.000000000000
 corr2    :     0.000000000000
 ispcorr1 :     0.000000000000
 ispcorr2 :     0.000000000000
 corr1    :     0.000000000000
 corr2    :     0.000000000000
 ispcorr1 :     0.000000000000
 ispcorr2 :     0.000000000000
 corr1    :     0.000000000000
 corr2    :     0.000000000000
 ispcorr1 :     0.000000000000
 ispcorr2 :     0.000000000000
 corr1    :     0.000000000000
 corr2    :     0.000000000000
 ispcorr1 :     0.000000000000
 ispcorr2 :     0.000000000000
 corr1    :     0.000000000000
 corr2    :     0.000000000000
 ispcorr1 :     0.000000000000
 ispcorr2 :     0.000000000000
 corr1    :     0.000000000000
 corr2    :     0.000000000000
 ispcorr1 :     0.000000000000
 ispcorr2 :     0.000000000000
 corr1    :     0.000000000000
 corr2    :     0.000000000000
 ispcorr1 :     0.000000000000
 ispcorr2 :     0.000000000000
 corr1    :     0.000000000000
 corr2    :     0.000000000000
 ispcorr1 :     0.000000000000
 ispcorr2 :     0.000000000000
 corr1    :     0.000000000000
 corr2    :     0.000000000000
 ispcorr1 :     0.000000000000
 ispcorr2 :     0.000000000000
 corr1    :     0.000000000000
 corr2    :     0.000000000000
 ispcorr1 :     0.000000000000
 ispcorr2 :     0.000000000000
 corr1    :     0.000000000000
 corr2    :     0.000000000000
 ispcorr1 :     0.000000000000
 ispcorr2 :     0.000000000000
 corr1    :     0.000000000000
 corr2    :     0.000000000000
 ispcorr1 :     0.000000000000
 ispcorr2 :     0.000000000000
 corr1    :     0.000000000000
 corr2    :     0.000000000000
 ispcorr1 :     0.000000000000
 ispcorr2 :     0.000000000000
 corr1    :     0.000000000000
 corr2    :     0.000000000000
 ispcorr1 :     0.000000000000
 ispcorr2 :     0.000000000000
 corr1    :     0.000000000000
 corr2    :     0.000000000000
 ispcorr1 :     0.000000000000
 ispcorr2 :     0.000000000000
 corr1    :     0.000000000000
 corr2    :     0.000000000000
 CPU time [min]:     1.969                   Wall time [min]:     0.537
 ======================================================================
 Spin case 13   Alpha:  1   Beta:  2
 Number of excitations:        37599
 ispcorr1 :     0.000000000000
 ispcorr2 :     0.000000000000
 corr1    :     0.000000000000
 corr2    :     0.000000000000
 ispcorr1 :     0.000000000000
 ispcorr2 :     0.000000000000
 corr1    :     0.000000000000
 corr2    :     0.000000000000
 ispcorr1 :     0.000000000000
 ispcorr2 :     0.000000000000
 corr1    :     0.000000000000
 corr2    :     0.000000000000
 ispcorr1 :     0.000000000000
 ispcorr2 :     0.000000000000
 corr1    :     0.000000000000
 corr2    :     0.000000000000
 ispcorr1 :     0.000000000000
 ispcorr2 :     0.000000000000
 corr1    :     0.000000000000
 corr2    :     0.000000000000
 ispcorr1 :     0.000000000000
 ispcorr2 :     0.000000000000
 corr1    :     0.000000000000
 corr2    :     0.000000000000
 ispcorr1 :     0.000000000000
 ispcorr2 :     0.000000000000
 corr1    :     0.000000000000
 corr2    :     0.000000000000
 ispcorr1 :     0.000000000000
 ispcorr2 :     0.000000000000
 corr1    :     0.000000000000
 corr2    :     0.000000000000
 ispcorr1 :     0.000000000000
 ispcorr2 :     0.000000000000
 corr1    :     0.000000000000
 corr2    :     0.000000000000
 ispcorr1 :     0.000000000000
 ispcorr2 :     0.000000000000
 corr1    :     0.000000000000
 corr2    :     0.000000000000
 ispcorr1 :     0.000000000000
 ispcorr2 :     0.000000000000
 corr1    :     0.000000000000
 corr2    :     0.000000000000
 CPU time [min]:     2.013                   Wall time [min]:     0.548
 ======================================================================
 Spin case 14   Alpha:  2   Beta:  1
 Number of excitations:        64610
 ispcorr1 :     0.000000000000
 ispcorr2 :     0.000000000000
 corr1    :     0.000000000000
 corr2    :     0.000000000000
 ispcorr1 :     0.000000000000
 ispcorr2 :     0.000000000000
 corr1    :     0.000000000000
 corr2    :     0.000000000000
 ispcorr1 :     0.000000000000
 ispcorr2 :     0.000000000000
 corr1    :     0.000000000000
 corr2    :     0.000000000000
 ispcorr1 :     0.000000000000
 ispcorr2 :     0.000000000000
 corr1    :     0.000000000000
 corr2    :     0.000000000000
 ispcorr1 :     0.000000000000
 ispcorr2 :     0.000000000000
 corr1    :     0.000000000000
 corr2    :     0.000000000000
 ispcorr1 :     0.000000000000
 ispcorr2 :     0.000000000000
 corr1    :     0.000000000000
 corr2    :     0.000000000000
 ispcorr1 :     0.000000000000
 ispcorr2 :     0.000000000000
 corr1    :     0.000000000000
 corr2    :     0.000000000000
 ispcorr1 :     0.000000000000
 ispcorr2 :     0.000000000000
 corr1    :     0.000000000000
 corr2    :     0.000000000000
 ispcorr1 :     0.000000000000
 ispcorr2 :     0.000000000000
 corr1    :     0.000000000000
 corr2    :     0.000000000000
 ispcorr1 :     0.000000000000
 ispcorr2 :     0.000000000000
 corr1    :     0.000000000000
 corr2    :     0.000000000000
 ispcorr1 :     0.000000000000
 ispcorr2 :     0.000000000000
 corr1    :     0.000000000000
 corr2    :     0.000000000000
 CPU time [min]:     2.075                   Wall time [min]:     0.564
 ======================================================================
 Spin case 15   Alpha:  2   Beta:  1
 Number of excitations:        142374
 ispcorr1 :     0.000000000000
 ispcorr2 :     0.000000000000
 corr1    :     0.000000000000
 corr2    :     0.000000000000
 ispcorr1 :     0.000000000000
 ispcorr2 :     0.000000000000
 corr1    :     0.000000000000
 corr2    :     0.000000000000
 ispcorr1 :     0.000000000000
 ispcorr2 :     0.000000000000
 corr1    :     0.000000000000
 corr2    :     0.000000000000
 ispcorr1 :     0.000000000000
 ispcorr2 :     0.000000000000
 corr1    :     0.000000000000
 corr2    :     0.000000000000
 ispcorr1 :     0.000000000000
 ispcorr2 :     0.000000000000
 corr1    :     0.000000000000
 corr2    :     0.000000000000
 ispcorr1 :     0.000000000000
 ispcorr2 :     0.000000000000
 corr1    :     0.000000000000
 corr2    :     0.000000000000
 ispcorr1 :     0.000000000000
 ispcorr2 :     0.000000000000
 corr1    :     0.000000000000
 corr2    :     0.000000000000
 ispcorr1 :     0.000000000000
 ispcorr2 :     0.000000000000
 corr1    :     0.000000000000
 corr2    :     0.000000000000
 ispcorr1 :     0.000000000000
 ispcorr2 :     0.000000000000
 corr1    :     0.000000000000
 corr2    :     0.000000000000
 ispcorr1 :     0.000000000000
 ispcorr2 :     0.000000000000
 corr1    :     0.000000000000
 corr2    :     0.000000000000
 ispcorr1 :     0.000000000000
 ispcorr2 :     0.000000000000
 corr1    :     0.000000000000
 corr2    :     0.000000000000
 ispcorr1 :     0.000000000000
 ispcorr2 :     0.000000000000
 corr1    :     0.000000000000
 corr2    :     0.000000000000
 ispcorr1 :     0.000000000000
 ispcorr2 :     0.000000000000
 corr1    :     0.000000000000
 corr2    :     0.000000000000
 ispcorr1 :     0.000000000000
 ispcorr2 :     0.000000000000
 corr1    :     0.000000000000
 corr2    :     0.000000000000
 ispcorr1 :     0.000000000000
 ispcorr2 :     0.000000000000
 corr1    :     0.000000000000
 corr2    :     0.000000000000
 ispcorr1 :     0.000000000000
 ispcorr2 :     0.000000000000
 corr1    :     0.000000000000
 corr2    :     0.000000000000
 ispcorr1 :     0.000000000000
 ispcorr2 :     0.000000000000
 corr1    :     0.000000000000
 corr2    :     0.000000000000
 CPU time [min]:     2.294                   Wall time [min]:     0.619
 ======================================================================
 Spin case 16   Alpha:  3   Beta:  0
 Number of excitations:        20466
 ispcorr1 :     0.000000000000
 ispcorr2 :     0.000000000000
 corr1    :     0.000000000000
 corr2    :     0.000000000000
 ispcorr1 :     0.000000000000
 ispcorr2 :     0.000000000000
 corr1    :     0.000000000000
 corr2    :     0.000000000000
 ispcorr1 :     0.000000000000
 ispcorr2 :     0.000000000000
 corr1    :     0.000000000000
 corr2    :     0.000000000000
 ispcorr1 :     0.000000000000
 ispcorr2 :     0.000000000000
 corr1    :     0.000000000000
 corr2    :     0.000000000000
 ispcorr1 :     0.000000000000
 ispcorr2 :     0.000000000000
 corr1    :     0.000000000000
 corr2    :     0.000000000000
 ispcorr1 :     0.000000000000
 ispcorr2 :     0.000000000000
 corr1    :     0.000000000000
 corr2    :     0.000000000000
 ispcorr1 :     0.000000000000
 ispcorr2 :     0.000000000000
 corr1    :     0.000000000000
 corr2    :     0.000000000000
 CPU time [min]:     2.321                   Wall time [min]:     0.626
 ======================================================================
 Spin case 17   Alpha:  0   Beta:  3
 Number of excitations:        788
 ispcorr1 :     0.000000000000
 ispcorr2 :     0.000000000000
 corr1    :     0.000000000000
 corr2    :     0.000000000000
 ispcorr1 :     0.000000000000
 ispcorr2 :     0.000000000000
 corr1    :     0.000000000000
 corr2    :     0.000000000000
 ispcorr1 :     0.000000000000
 ispcorr2 :     0.000000000000
 corr1    :     0.000000000000
 corr2    :     0.000000000000
 ispcorr1 :     0.000000000000
 ispcorr2 :     0.000000000000
 corr1    :     0.000000000000
 corr2    :     0.000000000000
 CPU time [min]:     2.324                   Wall time [min]:     0.626
 ======================================================================
 Spin case 18   Alpha:  1   Beta:  2
 Number of excitations:        36003
 ispcorr1 :     0.000000000000
 ispcorr2 :     0.000000000000
 corr1    :     0.000000000000
 corr2    :     0.000000000000
 ispcorr1 :     0.000000000000
 ispcorr2 :     0.000000000000
 corr1    :     0.000000000000
 corr2    :     0.000000000000
 ispcorr1 :     0.000000000000
 ispcorr2 :     0.000000000000
 corr1    :     0.000000000000
 corr2    :     0.000000000000
 ispcorr1 :     0.000000000000
 ispcorr2 :     0.000000000000
 corr1    :     0.000000000000
 corr2    :     0.000000000000
 ispcorr1 :     0.000000000000
 ispcorr2 :     0.000000000000
 corr1    :     0.000000000000
 corr2    :     0.000000000000
 ispcorr1 :     0.000000000000
 ispcorr2 :     0.000000000000
 corr1    :     0.000000000000
 corr2    :     0.000000000000
 ispcorr1 :     0.000000000000
 ispcorr2 :     0.000000000000
 corr1    :     0.000000000000
 corr2    :     0.000000000000
 ispcorr1 :     0.000000000000
 ispcorr2 :     0.000000000000
 corr1    :     0.000000000000
 corr2    :     0.000000000000
 ispcorr1 :     0.000000000000
 ispcorr2 :     0.000000000000
 corr1    :     0.000000000000
 corr2    :     0.000000000000
 ispcorr1 :     0.000000000000
 ispcorr2 :     0.000000000000
 corr1    :     0.000000000000
 corr2    :     0.000000000000
 CPU time [min]:     2.363                   Wall time [min]:     0.636
 ======================================================================
 Spin case 19   Alpha:  2   Beta:  1
 Number of excitations:        65556
 ispcorr1 :     0.000000000000
 ispcorr2 :     0.000000000000
 corr1    :     0.000000000000
 corr2    :     0.000000000000
 ispcorr1 :     0.000000000000
 ispcorr2 :     0.000000000000
 corr1    :     0.000000000000
 corr2    :     0.000000000000
 ispcorr1 :     0.000000000000
 ispcorr2 :     0.000000000000
 corr1    :     0.000000000000
 corr2    :     0.000000000000
 ispcorr1 :     0.000000000000
 ispcorr2 :     0.000000000000
 corr1    :     0.000000000000
 corr2    :     0.000000000000
 ispcorr1 :     0.000000000000
 ispcorr2 :     0.000000000000
 corr1    :     0.000000000000
 corr2    :     0.000000000000
 ispcorr1 :     0.000000000000
 ispcorr2 :     0.000000000000
 corr1    :     0.000000000000
 corr2    :     0.000000000000
 ispcorr1 :     0.000000000000
 ispcorr2 :     0.000000000000
 corr1    :     0.000000000000
 corr2    :     0.000000000000
 ispcorr1 :     0.000000000000
 ispcorr2 :     0.000000000000
 corr1    :     0.000000000000
 corr2    :     0.000000000000
 ispcorr1 :     0.000000000000
 ispcorr2 :     0.000000000000
 corr1    :     0.000000000000
 corr2    :     0.000000000000
 ispcorr1 :     0.000000000000
 ispcorr2 :     0.000000000000
 corr1    :     0.000000000000
 corr2    :     0.000000000000
 CPU time [min]:     2.423                   Wall time [min]:     0.651
 ======================================================================
 Spin case 20   Alpha:  3   Beta:  0
 Number of excitations:        6002
 ispcorr1 :     0.000000000000
 ispcorr2 :     0.000000000000
 corr1    :     0.000000000000
 corr2    :     0.000000000000
 ispcorr1 :     0.000000000000
 ispcorr2 :     0.000000000000
 corr1    :     0.000000000000
 corr2    :     0.000000000000
 ispcorr1 :     0.000000000000
 ispcorr2 :     0.000000000000
 corr1    :     0.000000000000
 corr2    :     0.000000000000
 ispcorr1 :     0.000000000000
 ispcorr2 :     0.000000000000
 corr1    :     0.000000000000
 corr2    :     0.000000000000
 CPU time [min]:     2.428                   Wall time [min]:     0.653
 ======================================================================
 Number of 3-fold excitations: 913318
 
 corr1 :     0.000000797762
 corr3 :     0.000000000000
 corr4 :     0.000000000000
 corr2 :    -0.000000474465
 
 corr1 :     0.000027013169
 corr3 :     0.000000000000
 corr4 :     0.000000000000
 corr2 :    -0.000589233266
 
 corr1 :     0.000918460269
 corr3 :     0.000000000000
 corr4 :     0.000000000000
 corr2 :    -0.002266740789
 
 corr1 :     0.000911295379
 corr3 :     0.000000000000
 corr4 :     0.000000000000
 corr2 :    -0.002406101242
 
 corr1 :     0.000918507028
 corr3 :     0.000000000000
 corr4 :     0.000000000000
 corr2 :    -0.002408069088
 
 corr1 :     0.001326701641
 corr3 :     0.000000000000
 corr4 :     0.000000000000
 corr2 :    -0.002548368396
 
 corr1 :     0.001318343996
 corr3 :     0.000000000000
 corr4 :     0.000000000000
 corr2 :    -0.002816372394
 
 corr1 :     0.001744533667
 corr3 :     0.000000000000
 corr4 :     0.000000000000
 corr2 :    -0.003396803623
 
 corr1 :     0.001751610953
 corr3 :     0.000000000000
 corr4 :     0.000000000000
 corr2 :    -0.003768192110
 
 corr1 :     0.001760347345
 corr3 :     0.000000000000
 corr4 :     0.000000000000
 corr2 :    -0.003812876485
 
 corr1 :     0.001762522701
 corr3 :     0.000000000000
 corr4 :     0.000000000000
 corr2 :    -0.003814945143
 
 corr1 :     0.002051513390
 corr3 :     0.000000000000
 corr4 :     0.000000000000
 corr2 :    -0.003916575570
 
 corr1 :     0.002054168554
 corr3 :     0.000000000000
 corr4 :     0.000000000000
 corr2 :    -0.003980945338
 
 corr1 :     0.002330574818
 corr3 :     0.000000000000
 corr4 :     0.000000000000
 corr2 :    -0.004113584592
 
 corr1 :     0.002357806505
 corr3 :     0.000000000000
 corr4 :     0.000000000000
 corr2 :    -0.004450558638
 
 corr1 :     0.002365778047
 corr3 :     0.000000000000
 corr4 :     0.000000000000
 corr2 :    -0.004486114138
 
 corr1 :     0.002365769380
 corr3 :     0.000000000000
 corr4 :     0.000000000000
 corr2 :    -0.004486235985
 
 corr1 :     0.002365813065
 corr3 :     0.000000000000
 corr4 :     0.000000000000
 corr2 :    -0.004496235629
 
 corr1 :     0.002365725268
 corr3 :     0.000000000000
 corr4 :     0.000000000000
 corr2 :    -0.004523257460
 
 corr1 :     0.002365819624
 corr3 :     0.000000000000
 corr4 :     0.000000000000
 corr2 :    -0.004524780425
 
 CPU time [min]:     2.432                   Wall time [min]:     0.654
 
 Total CCSD[T] energy [au]:                   -75.092368335755
 Total CCSD(T) energy [au]:                   -75.090002516131
 
 Dominant cluster amplitudes
 Printing threshold:  1.00E-02
 
    1.000000  Reference determinant                                     
    0.010458  5a -> 41a                                                 
   -0.029369  2b -> 10b                                                 
    0.012068  2b -> 14b                                                 
   -0.011063  2b -> 18b                                                 
   -0.029458  2b -> 26b                                                 
    0.011510  2b -> 30b                                                 
   -0.671927  3b -> 7b                                                  
   -0.207789  3b -> 15b                                                 
   -0.036290  3b -> 31b                                                 
    0.014351  2a -> 14a                                                 
   -0.011500  2a -> 26a                                                 
    0.024656  2a -> 30a                                                 
    0.018553  3a -> 7a                                                  
    0.014091  3a -> 23a                                                 
   -0.011771  4a -> 16a                                                 
    0.010042  4a -> 24a                                                 
   -0.024606  5a -> 9a                                                  
   -0.034652  5a -> 17a                                                 
    0.015046  5a -> 25a                                                 
    0.011022  2b 3b -> 11b 4b                                           
    0.011105  2b 3b -> 27b 4b                                           
   -0.010071  4a 2b -> 44a 5b                                           
   -0.011662  5a 2b -> 46a 5b                                           
    0.011046  4a 3b -> 7a 4b                                            
   -0.011230  2a 3b -> 27a 4b                                           
   -0.013482  3a 2b -> 11a 4b                                           
   -0.018635  3a 2b -> 27a 4b                                           
    0.013676  4a 2b -> 10a 4b                                           
    0.018709  4a 2b -> 26a 4b                                           
    0.011392  4a 2b -> 30a 4b                                           
   -0.013777  5a 2b -> 12a 4b                                           
   -0.019328  5a 2b -> 28a 4b                                           
   -0.015184  2b 3b -> 5b 13b                                           
    0.014129  2b 3b -> 15b 18b                                          
    0.010417  2b 3b -> 8b 27b                                           
   -0.015754  2b 3b -> 5b 29b                                           
   -0.014441  2a 2b -> 18a 18b                                          
   -0.010140  3a 3b -> 10a 14b                                          
   -0.013134  3a 3b -> 18a 18b                                          
   -0.010854  3a 3b -> 10a 30b                                          
   -0.018012  3a 3b -> 26a 30b                                          
   -0.010166  3a 3b -> 13a 13b                                          
   -0.010236  3a 3b -> 29a 13b                                          
   -0.010648  3a 3b -> 13a 29b                                          
   -0.018036  3a 3b -> 29a 29b                                          
   -0.010151  3a 3b -> 11a 11b                                          
   -0.010909  3a 3b -> 11a 27b                                          
   -0.018064  3a 3b -> 27a 27b                                          
   -0.018115  3a 3b -> 7a 7b                                            
   -0.027491  3a 3b -> 15a 7b                                           
   -0.027522  3a 3b -> 7a 15b                                           
   -0.050227  3a 3b -> 15a 15b                                          
   -0.019164  3a 3b -> 31a 15b                                          
   -0.019913  3a 3b -> 15a 31b                                          
   -0.018238  3a 3b -> 31a 31b                                          
   -0.010454  2a 2b -> 16a 16b                                          
    0.014561  2a 2b -> 17a 5b                                           
   -0.012589  5a 3b -> 30a 29b                                          
   -0.012540  5a 3b -> 28a 27b                                          
   -0.012494  5a 3b -> 29a 30b                                          
    0.016906  5a 3b -> 7a 5b                                            
    0.015961  5a 3b -> 15a 5b                                           
   -0.012228  5a 3b -> 9a 7b                                            
   -0.020841  5a 3b -> 17a 7b                                           
   -0.018004  5a 3b -> 9a 15b                                           
   -0.036223  5a 3b -> 17a 15b                                          
   -0.015450  5a 3b -> 33a 15b                                          
   -0.014681  5a 3b -> 17a 31b                                          
   -0.013098  5a 3b -> 33a 31b                                          
   -0.012461  4a 3b -> 28a 29b                                          
   -0.010959  4a 3b -> 7a 8b                                            
   -0.010664  4a 3b -> 15a 8b                                           
   -0.010602  4a 3b -> 15a 16b                                          
   -0.012366  4a 3b -> 8a 7b                                            
   -0.020503  4a 3b -> 16a 7b                                           
   -0.018380  4a 3b -> 8a 15b                                           
   -0.035851  4a 3b -> 16a 15b                                          
   -0.015243  4a 3b -> 32a 15b                                          
   -0.014671  4a 3b -> 16a 31b                                          
   -0.013045  4a 3b -> 32a 31b                                          
   -0.013695  2a 3b -> 18a 7b                                           
   -0.017164  2a 3b -> 6a 15b                                           
   -0.027291  2a 3b -> 18a 15b                                          
   -0.011544  2a 3b -> 34a 15b                                          
   -0.012913  2a 3b -> 18a 31b                                          
   -0.011168  2a 3b -> 34a 31b                                          
   -0.010544  3a 2b -> 18a 15b                                          
   -0.015962  2a 3b -> 29a 5b                                           
   -0.018177  3a 2b -> 13a 5b                                           
   -0.026822  3a 2b -> 29a 5b                                           
    0.010423  2a 3b -> 27a 8b                                           
    0.011761  3a 2b -> 11a 8b                                           
    0.017512  3a 2b -> 27a 8b                                           
    0.010314  3a 2b -> 27a 16b                                          
   -0.011605  2a 3b -> 15a 18b                                          
   -0.011495  3a 2b -> 15a 6b                                           
   -0.018792  3a 2b -> 15a 18b                                          
   -0.010097  3a 2b -> 31a 18b                                          
   -0.012002  4a 2b -> 10a 8b                                           
   -0.017571  4a 2b -> 26a 8b                                           
   -0.010680  4a 2b -> 30a 8b                                           
   -0.011398  4a 2b -> 18a 16b                                          
   -0.010381  4a 2b -> 26a 16b                                          
   -0.018733  4a 2b -> 12a 5b                                           
   -0.027620  4a 2b -> 28a 5b                                           
   -0.011287  4a 2b -> 16a 6b                                           
   -0.018496  4a 2b -> 16a 18b                                          
   -0.010195  4a 2b -> 32a 18b                                          
    0.012334  5a 2b -> 6a 5b                                            
   -0.021714  5a 2b -> 14a 5b                                           
    0.012124  5a 2b -> 18a 5b                                           
   -0.031688  5a 2b -> 30a 5b                                           
    0.012061  5a 2b -> 12a 8b                                           
    0.018135  5a 2b -> 28a 8b                                           
    0.010675  5a 2b -> 28a 16b                                          
   -0.011442  5a 2b -> 17a 6b                                           
   -0.018694  5a 2b -> 17a 18b                                          
   -0.010329  5a 2b -> 33a 18b                                          
   -0.018683  4a 5a -> 16a 17a                                          
   -0.012711  4a 5a -> 28a 30a                                          
   -0.010040  4a 5a -> 16a 33a                                          
   -0.018356  3a 5a -> 15a 17a                                          
   -0.012859  3a 5a -> 29a 30a                                          
   -0.018160  3a 4a -> 15a 16a                                          
   -0.014939  3a 4a -> 26a 27a                                          
    0.010072  2a 3a -> 15a 18a                                          
    0.010196  2a 4a -> 16a 18a                                          
    0.010323  2a 5a -> 17a 18a                                          

 ************************ 2025-08-18 21:55:16 *************************
 Executing goldstone...

 Generation of MRCC equations in terms of H and T...
 Generation of antisymmetrized Goldstone diagrams...
 Number of diagrams in T^1 equations:    15
 Number of diagrams in T^2 equations:    38
 Number of diagrams in T^3 equations:    50
 Number of diagrams in T^4 equations:     5
 Translation of diagrams to factorized equations...
 Number of restricted diagrams in T^1 equations:     78
 Number of restricted diagrams in T^2 equations:    344
 Number of restricted diagrams in T^3 equations:    830
 Number of restricted diagrams in T^4 equations:     86
 Optimizing intermediate calculation...
 Number of floating-point operations per iteration step:   1.0107E+11
 Probable CPU time per iteration step (hours):            1.01
 Required memory (Mbytes):          2653.9
 Number of intermediates:                                 534
 Number of intermediates to be stored:                    212
 Length of intermediate file (Mbytes):           108.7

 ************************ 2025-08-18 21:55:17 *************************
 Executing xmrcc...

 **********************************************************************
 MRCC(                     4 ) calculation 
 
 
 Allocation of        32768.0 Mbytes of memory...
 Number of spinorbitals:                   142
 Number of alpha electrons:                        5
 Number of beta electrons:                         3
 Number of active particles:                    68
 Number of active holes:                         0
 Spin multiplicity:                     2
 z-component of spin:  1.0
 Spatial symmetry:                      2
 Convergence criterion:  1.0E-06
 Construction of occupation graphs...
 Number of                     0 -fold excitations:                      1
 Number of                     1 -fold excitations:                    120
 Number of                     2 -fold excitations:                  13853
 Number of                     3 -fold excitations:                 913318
 Total number of configurations:                 927292
 Calculation of coupling coefficients...
 Length of intermediate file (Mbytes):            87.4
 
 ======================================================================
 
 Spin case  1   Alpha:  1   Beta:  3
 Number of excitations:                 126932
 Spin case  2   Alpha:  2   Beta:  2
 Number of excitations:                1181269
 Spin case  3   Alpha:  3   Beta:  1
 Number of excitations:                 762984
 Spin case  4   Alpha:  4   Beta:  0
 Number of excitations:                  29284
 Spin case  5   Alpha:  1   Beta:  3
 Number of excitations:                 119476
 Spin case  6   Alpha:  1   Beta:  3
 Number of excitations:                 406324
 Spin case  7   Alpha:  2   Beta:  2
 Number of excitations:                2292846
 Spin case  8   Alpha:  2   Beta:  2
 Number of excitations:                2437874
 Spin case  9   Alpha:  3   Beta:  1
 Number of excitations:                2281974
 Spin case 10   Alpha:  3   Beta:  1
 Number of excitations:                 763272
 Spin case 11   Alpha:  4   Beta:  0
 Number of excitations:                 119976
 Spin case 12   Alpha:  1   Beta:  3
 Number of excitations:                 382100
 Spin case 13   Alpha:  1   Beta:  3
 Number of excitations:                 408240
 Spin case 14   Alpha:  2   Beta:  2
 Number of excitations:                1045340
 Spin case 15   Alpha:  2   Beta:  2
 Number of excitations:                4739628
 Spin case 16   Alpha:  2   Beta:  2
 Number of excitations:                1184416
 Spin case 17   Alpha:  3   Beta:  1
 Number of excitations:                2136722
 Spin case 18   Alpha:  3   Beta:  1
 Number of excitations:                2277990
 Spin case 19   Alpha:  4   Beta:  0
 Number of excitations:                 171242
 Spin case 20   Alpha:  1   Beta:  3
 Number of excitations:                 383808
 Spin case 21   Alpha:  1   Beta:  3
 Number of excitations:                 128330
 Spin case 22   Alpha:  2   Beta:  2
 Number of excitations:                2162198
 Spin case 23   Alpha:  2   Beta:  2
 Number of excitations:                2305662
 Spin case 24   Alpha:  3   Beta:  1
 Number of excitations:                 628240
 Spin case 25   Alpha:  3   Beta:  1
 Number of excitations:                2128206
 Spin case 26   Alpha:  4   Beta:  0
 Number of excitations:                 102358
 Spin case 27   Alpha:  1   Beta:  3
 Number of excitations:                 120590
 Spin case 28   Alpha:  2   Beta:  2
 Number of excitations:                1052132
 Spin case 29   Alpha:  3   Beta:  1
 Number of excitations:                 625592
 Spin case 30   Alpha:  4   Beta:  0
 Number of excitations:                  21955
 Number of                     4 -fold excitations:               32526960
 
 Memory requirements /Mbyte/: 
               Minimal        Optimal
 Real*8:        136.2681       194.0335
 Integer:       295.5878
 Total:         431.8559       489.6213
 

 ************************ 2025-08-18 21:55:32 *************************
 Executing mrcc...

 **********************************************************************
 CCSDT(Q) calculation                                                   
 
 
 OpenMP parallel version is running.
 Number of CPU cores:   4
 Allocation of          194.0 Mbytes of memory...
 Number of spinorbitals: 142
 Number of alpha electrons:  5
 Number of beta  electrons:  3
 Number of active particles:                    68
 Number of active holes:                         0
 Spin multiplicity: 3
 z-component of spin:  1.0
 Spatial symmetry: 2
 Convergence criterion:  1.0E-06
 Construction of occupation graphs...
 Number of 0-fold excitations: 1
 Number of 1-fold excitations: 120
 Number of 2-fold excitations: 13853
 Number of 3-fold excitations: 913318
 Total number of determinants: 927292
 Calculation of coupling coefficients...
 Initial cluster amplitudes are read from unit 16.
 Length of intermediate file (Mbytes):      87.4
 Reading integral list from unit 55...
 Sorting integrals...
 Sorting integrals...
 Sorting integrals...
 Sorting integrals...
 Energy of reference determinant [au]:     -74.700924586369
 Calculation of MP denominators...
 
 Starting CC iteration...
 ======================================================================
 Norm of residual vector:     0.28676472
 CPU time [min]:     1.280                   Wall time [min]:     0.363
 
 Iteration  1  CC energy:   -75.08784357  Energy decrease:   0.00000001
 ======================================================================
 Norm of residual vector:     0.03782247
 CPU time [min]:     1.837                   Wall time [min]:     0.503
 
 Iteration  2  CC energy:   -75.09146193  Energy decrease:   0.00361836
 ======================================================================
 Norm of residual vector:     0.01341932
 CPU time [min]:     2.395                   Wall time [min]:     0.643
 
 Iteration  3  CC energy:   -75.09182256  Energy decrease:   0.00036063
 ======================================================================
 Norm of residual vector:     0.00449264
 CPU time [min]:     2.958                   Wall time [min]:     0.785
 
 Iteration  4  CC energy:   -75.09214584  Energy decrease:   0.00032328
 ======================================================================
 Norm of residual vector:     0.00230671
 CPU time [min]:     3.525                   Wall time [min]:     0.927
 
 Iteration  5  CC energy:   -75.09222530  Energy decrease:   0.00007946
 ======================================================================
 Norm of residual vector:     0.00101398
 CPU time [min]:     4.094                   Wall time [min]:     1.070
 
 Iteration  6  CC energy:   -75.09227835  Energy decrease:   0.00005305
 ======================================================================
 Norm of residual vector:     0.00048614
 CPU time [min]:     4.667                   Wall time [min]:     1.214
 
 Iteration  7  CC energy:   -75.09228784  Energy decrease:   0.00000950
 ======================================================================
 Norm of residual vector:     0.00022124
 CPU time [min]:     5.243                   Wall time [min]:     1.359
 
 Iteration  8  CC energy:   -75.09228767  Energy decrease:   0.00000018
 ======================================================================
 Norm of residual vector:     0.00008144
 CPU time [min]:     5.821                   Wall time [min]:     1.504
 
 Iteration  9  CC energy:   -75.09228361  Energy decrease:   0.00000406
 ======================================================================
 Norm of residual vector:     0.00002760
 CPU time [min]:     6.401                   Wall time [min]:     1.650
 
 Iteration 10  CC energy:   -75.09228320  Energy decrease:   0.00000041
 ======================================================================
 Norm of residual vector:     0.00000989
 CPU time [min]:     6.983                   Wall time [min]:     1.796
 
 Iteration 11  CC energy:   -75.09228329  Energy decrease:   0.00000009
 ======================================================================
 Norm of residual vector:     0.00000360
 CPU time [min]:     7.568                   Wall time [min]:     1.943
 
 Iteration 12  CC energy:   -75.09228341  Energy decrease:   0.00000012
 ======================================================================
 Norm of residual vector:     0.00000129
 CPU time [min]:     8.154                   Wall time [min]:     2.090
 
 Iteration 13  CC energy:   -75.09228341  Energy decrease:   1.3417E-09
 ======================================================================
 Norm of residual vector:     0.00000050
 CPU time [min]:     8.742                   Wall time [min]:     2.238
 
 Iteration 14  CC energy:   -75.09228340  Energy decrease:   0.00000001
 ======================================================================
 
 Iteration has converged in 14 steps.
 
 Final results:
 Total CCSDT energy [au]:                     -75.092283400417
 
 Perturbative corrections are calculated...
 ======================================================================
 Spin case  1   Alpha:  1   Beta:  3
 Number of excitations:        126932
 ispcorr1 :     0.000000000000
 ispcorr2 :     0.000000000000
 corr1    :     0.000000000000
 corr2    :     0.000000000000
 ispcorr1 :     0.000000000000
 ispcorr2 :     0.000000000000
 corr1    :     0.000000000000
 corr2    :     0.000000000000
 ispcorr1 :     0.000000000000
 ispcorr2 :     0.000000000000
 corr1    :     0.000000000000
 corr2    :     0.000000000000
 ispcorr1 :     0.000000000000
 ispcorr2 :     0.000000000000
 corr1    :     0.000000000000
 corr2    :     0.000000000000
 ispcorr1 :     0.000000000000
 ispcorr2 :     0.000000000000
 corr1    :     0.000000000000
 corr2    :     0.000000000000
 ispcorr1 :     0.000000000000
 ispcorr2 :     0.000000000000
 corr1    :     0.000000000000
 corr2    :     0.000000000000
 ispcorr1 :     0.000000000000
 ispcorr2 :     0.000000000000
 corr1    :     0.000000000000
 corr2    :     0.000000000000
 ispcorr1 :     0.000000000000
 ispcorr2 :     0.000000000000
 corr1    :     0.000000000000
 corr2    :     0.000000000000
 ispcorr1 :     0.000000000000
 ispcorr2 :     0.000000000000
 corr1    :     0.000000000000
 corr2    :     0.000000000000
 ispcorr1 :     0.000000000000
 ispcorr2 :     0.000000000000
 corr1    :     0.000000000000
 corr2    :     0.000000000000
 ispcorr1 :     0.000000000000
 ispcorr2 :     0.000000000000
 corr1    :     0.000000000000
 corr2    :     0.000000000000
 ispcorr1 :     0.000000000000
 ispcorr2 :     0.000000000000
 corr1    :     0.000000000000
 corr2    :     0.000000000000
 ispcorr1 :     0.000000000000
 ispcorr2 :     0.000000000000
 corr1    :     0.000000000000
 corr2    :     0.000000000000
 ispcorr1 :     0.000000000000
 ispcorr2 :     0.000000000000
 corr1    :     0.000000000000
 corr2    :     0.000000000000
 ispcorr1 :     0.000000000000
 ispcorr2 :     0.000000000000
 corr1    :     0.000000000000
 corr2    :     0.000000000000
 ispcorr1 :     0.000000000000
 ispcorr2 :     0.000000000000
 corr1    :     0.000000000000
 corr2    :     0.000000000000
 ispcorr1 :     0.000000000000
 ispcorr2 :     0.000000000000
 corr1    :     0.000000000000
 corr2    :     0.000000000000
 ispcorr1 :     0.000000000000
 ispcorr2 :     0.000000000000
 corr1    :     0.000000000000
 corr2    :     0.000000000000
 ispcorr1 :     0.000000000000
 ispcorr2 :     0.000000000000
 corr1    :     0.000000000000
 corr2    :     0.000000000000
 CPU time [min]:    10.325                   Wall time [min]:     2.638
 ======================================================================
 Spin case  2   Alpha:  2   Beta:  2
 Number of excitations:        1181269
 ispcorr1 :     0.000000000000
 ispcorr2 :     0.000000000000
 corr1    :     0.000000000000
 corr2    :     0.000000000000
 ispcorr1 :     0.000000000000
 ispcorr2 :     0.000000000000
 corr1    :     0.000000000000
 corr2    :     0.000000000000
 ispcorr1 :     0.000000000000
 ispcorr2 :     0.000000000000
 corr1    :     0.000000000000
 corr2    :     0.000000000000
 ispcorr1 :     0.000000000000
 ispcorr2 :     0.000000000000
 corr1    :     0.000000000000
 corr2    :     0.000000000000
 ispcorr1 :     0.000000000000
 ispcorr2 :     0.000000000000
 corr1    :     0.000000000000
 corr2    :     0.000000000000
 ispcorr1 :     0.000000000000
[...]
   -0.029520  2b -> 26b                                                 
    0.011581  2b -> 30b                                                 
   -0.671661  3b -> 7b                                                  
   -0.207494  3b -> 15b                                                 
   -0.036059  3b -> 31b                                                 
    0.014384  2a -> 14a                                                 
   -0.011557  2a -> 26a                                                 
    0.024699  2a -> 30a                                                 
    0.020835  3a -> 7a                                                  
    0.014058  3a -> 23a                                                 
   -0.011135  4a -> 16a                                                 
    0.010024  4a -> 24a                                                 
   -0.023660  5a -> 9a                                                  
   -0.034075  5a -> 17a                                                 
    0.014996  5a -> 25a                                                 
    0.012075  2b 3b -> 11b 4b                                           
    0.011581  2b 3b -> 27b 4b                                           
   -0.010135  4a 2b -> 44a 5b                                           
   -0.011747  5a 2b -> 46a 5b                                           
    0.014164  4a 3b -> 7a 4b                                            
    0.010868  4a 3b -> 15a 4b                                           
   -0.011557  2a 3b -> 27a 4b                                           
   -0.014864  3a 2b -> 11a 4b                                           
   -0.019281  3a 2b -> 27a 4b                                           
    0.014864  4a 2b -> 10a 4b                                           
    0.019281  4a 2b -> 26a 4b                                           
    0.011752  4a 2b -> 30a 4b                                           
   -0.014910  5a 2b -> 12a 4b                                           
   -0.019925  5a 2b -> 28a 4b                                           
    0.010364  2b 3b -> 8b 11b                                           
   -0.016439  2b 3b -> 5b 13b                                           
   -0.010053  2b 3b -> 6b 15b                                           
    0.014814  2b 3b -> 15b 18b                                          
    0.010853  2b 3b -> 8b 27b                                           
   -0.016374  2b 3b -> 5b 29b                                           
   -0.014752  2a 2b -> 18a 18b                                          
   -0.010801  3a 3b -> 10a 14b                                          
   -0.010217  3a 3b -> 26a 14b                                          
   -0.013406  3a 3b -> 18a 18b                                          
   -0.011170  3a 3b -> 10a 30b                                          
   -0.018270  3a 3b -> 26a 30b                                          
   -0.010826  3a 3b -> 13a 13b                                          
   -0.010488  3a 3b -> 29a 13b                                          
   -0.010903  3a 3b -> 13a 29b                                          
   -0.018249  3a 3b -> 29a 29b                                          
   -0.010801  3a 3b -> 11a 11b                                          
   -0.010217  3a 3b -> 27a 11b                                          
   -0.011170  3a 3b -> 11a 27b                                          
   -0.018270  3a 3b -> 27a 27b                                          
   -0.020245  3a 3b -> 7a 7b                                            
   -0.029108  3a 3b -> 15a 7b                                           
   -0.029388  3a 3b -> 7a 15b                                           
   -0.051927  3a 3b -> 15a 15b                                          
   -0.019410  3a 3b -> 31a 15b                                          
   -0.020173  3a 3b -> 15a 31b                                          
   -0.018566  3a 3b -> 31a 31b                                          
   -0.010107  2a 2b -> 16a 8b                                           
   -0.010784  2a 2b -> 16a 16b                                          
    0.015201  2a 2b -> 17a 5b                                           
    0.010168  3a 3b -> 9a 5b                                            
    0.010067  3a 3b -> 17a 5b                                           
   -0.012796  5a 3b -> 30a 29b                                          
   -0.012749  5a 3b -> 28a 27b                                          
   -0.012749  5a 3b -> 29a 30b                                          
    0.020852  5a 3b -> 7a 5b                                            
    0.017528  5a 3b -> 15a 5b                                           
   -0.013726  5a 3b -> 9a 7b                                            
   -0.022246  5a 3b -> 17a 7b                                           
   -0.019232  5a 3b -> 9a 15b                                           
   -0.037709  5a 3b -> 17a 15b                                          
   -0.015752  5a 3b -> 33a 15b                                          
   -0.014947  5a 3b -> 17a 31b                                          
   -0.013443  5a 3b -> 33a 31b                                          
   -0.012671  4a 3b -> 28a 29b                                          
   -0.013666  4a 3b -> 7a 8b                                            
   -0.011783  4a 3b -> 15a 8b                                           
   -0.011201  4a 3b -> 15a 16b                                          
   -0.013972  4a 3b -> 8a 7b                                            
   -0.021946  4a 3b -> 16a 7b                                           
   -0.019710  4a 3b -> 8a 15b                                           
   -0.037361  4a 3b -> 16a 15b                                          
   -0.015518  4a 3b -> 32a 15b                                          
   -0.014926  4a 3b -> 16a 31b                                          
   -0.013374  4a 3b -> 32a 31b                                          
   -0.010631  2a 3b -> 6a 7b                                            
   -0.014105  2a 3b -> 18a 7b                                           
   -0.017760  2a 3b -> 6a 15b                                           
   -0.027796  2a 3b -> 18a 15b                                          
   -0.011635  2a 3b -> 34a 15b                                          
   -0.013051  2a 3b -> 18a 31b                                          
   -0.011348  2a 3b -> 34a 31b                                          
   -0.010702  3a 2b -> 18a 15b                                          
   -0.016414  2a 3b -> 29a 5b                                           
   -0.019860  3a 2b -> 13a 5b                                           
   -0.027654  3a 2b -> 29a 5b                                           
    0.010722  2a 3b -> 27a 8b                                           
    0.012817  3a 2b -> 11a 8b                                           
    0.018061  3a 2b -> 27a 8b                                           
    0.010529  3a 2b -> 27a 16b                                          
   -0.011679  2a 3b -> 15a 18b                                          
   -0.012384  3a 2b -> 15a 6b                                           
   -0.019605  3a 2b -> 15a 18b                                          
   -0.010146  3a 2b -> 31a 18b                                          
   -0.012906  4a 2b -> 10a 8b                                           
   -0.018055  4a 2b -> 26a 8b                                           
   -0.010979  4a 2b -> 30a 8b                                           
   -0.011767  4a 2b -> 18a 16b                                          
   -0.010559  4a 2b -> 26a 16b                                          
   -0.020141  4a 2b -> 12a 5b                                           
   -0.028381  4a 2b -> 28a 5b                                           
   -0.012107  4a 2b -> 16a 6b                                           
   -0.019239  4a 2b -> 16a 18b                                          
   -0.010267  4a 2b -> 32a 18b                                          
    0.013493  5a 2b -> 6a 5b                                            
   -0.023298  5a 2b -> 14a 5b                                           
    0.012541  5a 2b -> 18a 5b                                           
   -0.032557  5a 2b -> 30a 5b                                           
    0.012913  5a 2b -> 12a 8b                                           
    0.018639  5a 2b -> 28a 8b                                           
    0.010865  5a 2b -> 28a 16b                                          
   -0.012245  5a 2b -> 17a 6b                                           
   -0.019422  5a 2b -> 17a 18b                                          
   -0.010407  5a 2b -> 33a 18b                                          
   -0.019863  4a 5a -> 16a 17a                                          
   -0.013017  4a 5a -> 28a 30a                                          
    0.010015  4a 5a -> 17a 32a                                          
   -0.010143  4a 5a -> 16a 33a                                          
   -0.010990  3a 5a -> 7a 17a                                           
   -0.019765  3a 5a -> 15a 17a                                          
   -0.013189  3a 5a -> 29a 30a                                          
   -0.010058  3a 5a -> 15a 33a                                          
   -0.010849  3a 4a -> 7a 16a                                           
   -0.019584  3a 4a -> 15a 16a                                          
   -0.015286  3a 4a -> 26a 27a                                          
    0.010484  2a 3a -> 15a 18a                                          
    0.010598  2a 4a -> 16a 18a                                          
    0.010711  2a 5a -> 17a 18a                                          

 ************************ 2025-08-24 14:53:36 *************************
 Executing goldstone...

 Generation of MRCC equations in terms of H and T...
 Generation of antisymmetrized Goldstone diagrams...
 Number of diagrams in T^1 equations:    15
 Number of diagrams in T^2 equations:    38
 Number of diagrams in T^3 equations:    54
 Number of diagrams in T^4 equations:    81
 Number of diagrams in T^5 equations:   102
 Number of diagrams in T^6 equations:    14
 Translation of diagrams to factorized equations...
 Number of restricted diagrams in T^1 equations:     78
 Number of restricted diagrams in T^2 equations:    344
 Number of restricted diagrams in T^3 equations:    892
 Number of restricted diagrams in T^4 equations:   2035
 Number of restricted diagrams in T^5 equations:   3948
 Number of restricted diagrams in T^6 equations:    730
 Optimizing intermediate calculation...
 Number of floating-point operations per iteration step:   2.8184E+14
 Probable CPU time per iteration step (hours):         2818.39
 Required memory (Mbytes):         61237.9
 Number of intermediates:                                1662
 Number of intermediates to be stored:                    698
 Length of intermediate file (Mbytes):        273155.3

 ************************ 2025-08-24 14:53:40 *************************
 Executing xmrcc...

 **********************************************************************
 MRCC(                     6 ) calculation 
 
 
 Allocation of        32768.0 Mbytes of memory...
 Number of spinorbitals:                   142
 Number of alpha electrons:                        5
 Number of beta electrons:                         3
 Number of active particles:                    68
 Number of active holes:                         0
 Spin multiplicity:                     2
 z-component of spin:  1.0
 Spatial symmetry:                      2
 Convergence criterion:  1.0E-06
 Construction of occupation graphs...
 Number of                     0 -fold excitations:                      1
 Number of                     1 -fold excitations:                    120
 Number of                     2 -fold excitations:                  13853
 Number of                     3 -fold excitations:                 913318
 Number of                     4 -fold excitations:               32526960
 Number of                     5 -fold excitations:              617559394
 Total number of configurations:              651013646
 Calculation of coupling coefficients...
 Length of intermediate file (Mbytes):        155037.0
 
 ======================================================================
 
 Spin case  1   Alpha:  3   Beta:  3
 Number of excitations:               44759744
 Spin case  2   Alpha:  4   Beta:  2
 Number of excitations:               48793624
 Spin case  3   Alpha:  5   Beta:  1
 Number of excitations:                3551436
 Spin case  4   Alpha:  3   Beta:  3
 Number of excitations:              134286600
 Spin case  5   Alpha:  3   Beta:  3
 Number of excitations:              142666280
 Spin case  6   Alpha:  4   Beta:  2
 Number of excitations:              201412392
 Spin case  7   Alpha:  4   Beta:  2
 Number of excitations:              100586048
 Spin case  8   Alpha:  5   Beta:  1
 Number of excitations:               18950016
 Spin case  9   Alpha:  5   Beta:  1
 Number of excitations:                3554148
 Spin case 10   Alpha:  3   Beta:  3
 Number of excitations:              126151792
 Spin case 11   Alpha:  3   Beta:  3
 Number of excitations:              427973820
 Spin case 12   Alpha:  3   Beta:  3
 Number of excitations:              142658760
 Spin case 13   Alpha:  4   Beta:  2
 Number of excitations:              292564520
 Spin case 14   Alpha:  4   Beta:  2
 Number of excitations:              415004544
 Spin case 15   Alpha:  4   Beta:  2
 Number of excitations:               48829168
 Spin case 16   Alpha:  5   Beta:  1
 Number of excitations:               37849152
 Spin case 17   Alpha:  5   Beta:  1
 Number of excitations:               18971760
 Spin case 18   Alpha:  3   Beta:  3
 Number of excitations:               37104744
 Spin case 19   Alpha:  3   Beta:  3
 Number of excitations:              402053530
 Spin case 20   Alpha:  3   Beta:  3
 Number of excitations:              427889700
 Spin case 21   Alpha:  3   Beta:  3
 Number of excitations:               44755264
 Spin case 22   Alpha:  4   Beta:  2
 Number of excitations:              177302331
 Spin case 23   Alpha:  4   Beta:  2
 Number of excitations:              602404615
 Spin case 24   Alpha:  4   Beta:  2
 Number of excitations:              201390264
 Spin case 25   Alpha:  5   Beta:  1
 Number of excitations:               35415992
 Spin case 26   Alpha:  5   Beta:  1
 Number of excitations:               37854048
 Spin case 27   Alpha:  3   Beta:  3
 Number of excitations:              118275910
 Spin case 28   Alpha:  3   Beta:  3
 Number of excitations:              401978550
 Spin case 29   Alpha:  3   Beta:  3
 Number of excitations:              134234700
 Spin case 30   Alpha:  4   Beta:  2
 Number of excitations:               37824168
 Spin case 31   Alpha:  4   Beta:  2
 Number of excitations:              365017822
 Spin case 32   Alpha:  4   Beta:  2
 Number of excitations:              292175300
 Spin case 33   Alpha:  5   Beta:  1
 Number of excitations:               15565001
 Spin case 34   Alpha:  5   Beta:  1
 Number of excitations:               35378920
 Spin case 35   Alpha:  3   Beta:  3
 Number of excitations:              118279470
 Spin case 36   Alpha:  3   Beta:  3
 Number of excitations:              126104992
 Spin case 37   Alpha:  4   Beta:  2
 Number of excitations:               77930971
 Spin case 38   Alpha:  4   Beta:  2
 Number of excitations:              177019107
 Spin case 39   Alpha:  5   Beta:  1
 Number of excitations:                2572683
 Spin case 40   Alpha:  5   Beta:  1
 Number of excitations:               15549967
 Spin case 41   Alpha:  3   Beta:  3
 Number of excitations:               37108244
 Spin case 42   Alpha:  4   Beta:  2
 Number of excitations:               37815186
 Spin case 43   Alpha:  5   Beta:  1
 Number of excitations:                2576187
 Number of                     6 -fold excitations:             6170141470
 
 Memory requirements /Mbyte/: 
               Minimal        Optimal
 Real*8:      21188.9380     21188.9380
 Integer:      5978.7910
 Total:       27167.7290     27167.7290
 

 ************************ 2025-08-24 14:58:20 *************************
 Executing mrcc...

 **********************************************************************
 CC(5)(6) calculation                                                   
 
 
 OpenMP parallel version is running.
 Number of CPU cores:   4
 Allocation of        21188.9 Mbytes of memory...
 Number of spinorbitals: 142
 Number of alpha electrons:  5
 Number of beta  electrons:  3
 Number of active particles:                    68
 Number of active holes:                         0
 Spin multiplicity: 3
 z-component of spin:  1.0
 Spatial symmetry: 2
 Convergence criterion:  1.0E-06
 Construction of occupation graphs...
 Number of 0-fold excitations: 1
 Number of 1-fold excitations: 120
 Number of 2-fold excitations: 13853
 Number of 3-fold excitations: 913318
 Number of 4-fold excitations: 32526960
 Number of 5-fold excitations: 617559394
 Total number of determinants: 651013646
 Calculation of coupling coefficients...
 Initial cluster amplitudes are read from unit 16.
 Length of intermediate file (Mbytes):  155037.0
 Reading integral list from unit 55...
 Sorting integrals...
 Sorting integrals...
 Sorting integrals...
 Sorting integrals...
 Energy of reference determinant [au]:     -74.700924586369
 Calculation of MP denominators...
 
 Starting CC iteration...
 ======================================================================
 Norm of residual vector:     0.00804983
 CPU time [min]:   641.726                   Wall time [min]:   226.857
 
 Iteration  1  CC energy:   -75.09243523  Energy decrease:   0.00000001
 ======================================================================
 Norm of residual vector:     0.00133257
 CPU time [min]:  1275.380                   Wall time [min]:   442.565
 
 Iteration  2  CC energy:   -75.09243522  Energy decrease:   1.6500E-09
 ======================================================================
 Norm of residual vector:     0.00042449
 CPU time [min]:  1911.445                   Wall time [min]:   659.307
 
 Iteration  3  CC energy:   -75.09243291  Energy decrease:   0.00000231
 ======================================================================
 Norm of residual vector:     0.00012441
 CPU time [min]:  2544.704                   Wall time [min]:   875.488
 
 Iteration  4  CC energy:   -75.09243718  Energy decrease:   0.00000427
 ======================================================================
 Norm of residual vector:     0.00004754
 CPU time [min]:  3190.126                   Wall time [min]:  1096.179
 
 Iteration  5  CC energy:   -75.09243787  Energy decrease:   0.00000069
 ======================================================================
 Norm of residual vector:     0.00001627
 CPU time [min]:  3841.218                   Wall time [min]:  1318.535
 
 Iteration  6  CC energy:   -75.09243840  Energy decrease:   0.00000052
 ======================================================================
 Norm of residual vector:     0.00000547
 CPU time [min]:  4485.157                   Wall time [min]:  1538.952
 
 Iteration  7  CC energy:   -75.09243837  Energy decrease:   0.00000003
 ======================================================================
 Norm of residual vector:     0.00000174
 CPU time [min]:  5123.849                   Wall time [min]:  1758.189
 
 Iteration  8  CC energy:   -75.09243839  Energy decrease:   0.00000002
 ======================================================================
