#INFO: **** input file is /lustre09/project/6004934/jaafar1/PySCF-MRCC/Fluorine/cation/dawCV4Z/UHF/input.py ****
import pyscf
from pyscf import cc, lib, tools, scf, symm, ao2mo
from pyscf.gto.basis import parse_gaussian
from pyscf.scf import atom_hf

name = 'out'
mol = pyscf.M(
    atom = '''
        F
    ''',
    unit = 'angstrom',
    basis = {
            'F' : parse_gaussian.load('F-d-aug-cc-pwCVQZ.gbs', 'F')
    },
    charge = +1,
    spin = 2,
    symmetry = True,
    verbose = 9,
    symmetry_subgroup = 'D2h',
    output = name +'.txt',
    max_memory = 32000,
)

original_AtomSphAverageRHF = atom_hf.AtomSphAverageRHF

class CustomAtomSphAverageRHF(original_AtomSphAverageRHF):
    def __init__(self, mol):
        super().__init__(mol)
        self.max_cycle = 9999
        self.direct_scf = False

atom_hf.AtomSphAverageRHF = CustomAtomSphAverageRHF

mf = mol.UHF().set(
    conv_tol=1e-13,
    max_cycle=9999,
    ddm_tol=1e-12,
    direct_scf=False,
    chkfile=name + '.chk',
    init_guess='atom',
    irrep_nelec={'Ag': 4, 'B3u': 2, 'B2u': 1, 'B1u': 1}
)

mf.kernel()

atom_hf.AtomSphAverageRHF = original_AtomSphAverageRHF

#pyscf.tools.fcidump.from_chkfile_uhf('FCIdump',name+'.chk',tol=1e-18, float_format='% 0.20E',molpro_orbsym=False,orbsym=None)
pyscf.tools.fcidump.from_scf_uhf(mf,'fort.55',tol=1e-18, float_format='% 0.20E',molpro_orbsym=False)
#MRCCInterface.run_mrcc(mf, fort_file='fort.55', mrcc_input_file='MINP', tol=1e-18, float_format='% 0.20E', molpro_orbsym=False)
#INFO: ******************** input file end ********************


System: uname_result(system='Linux', node='rc32106', release='5.14.0-687.15.1.el9_8.x86_64', version='#1 SMP PREEMPT_DYNAMIC Thu Jun 11 08:51:45 EDT 2026', machine='x86_64')  Threads 4
Python 3.13.2 (main, Feb  5 2025, 15:06:39) [GCC 13.3.0]
numpy 2.2.2  scipy 1.15.1  h5py 3.13.0
Date: Thu Jun 18 22:55:19 2026
PySCF version 2.10.0
PySCF path  /home/jaafar1/links/projects/rrg-tzeng/jaafar1/VENV/MRCCInterface/lib/python3.13/site-packages/pyscf

[CONFIG] ARGPARSE = False
[CONFIG] DEBUG = False
[CONFIG] MAX_MEMORY = 4000
[CONFIG] TMPDIR = /tmp
[CONFIG] UNIT = angstrom
[CONFIG] VERBOSE = 3
[CONFIG] conf_file = None
[INPUT] verbose = 9
[INPUT] max_memory = 32000 
[INPUT] num. atoms = 1
[INPUT] num. electrons = 8
[INPUT] charge = 1
[INPUT] spin (= nelec alpha-beta = 2S) = 2
[INPUT] symmetry True subgroup D2h
[INPUT] Mole.unit = angstrom
[INPUT] Symbol           X                Y                Z      unit          X                Y                Z       unit  Magmom
[INPUT]  1 F      0.000000000000   0.000000000000   0.000000000000 AA    0.000000000000   0.000000000000   0.000000000000 Bohr   0.0
[INPUT] ---------------- BASIS SET ---------------- 
[INPUT] l, kappa, [nprim/nctr], expnt,             c_1 c_2 ...
[INPUT] F
[INPUT] 0    0    [1    /1   ]  88.88                1
[INPUT] 0    0    [1    /1   ]  34.581               1
[INPUT] 0    0    [12   /2   ]  74530             9.5e-05 -2.2e-05
                                11170             0.000738 -0.000172
                                2543              0.003858 -0.000891
                                721               0.015926 -0.003748
                                235.9             0.054289 -0.012862
                                85.6              0.149513 -0.038061
                                33.55             0.308252 -0.086239
                                13.93             0.394853 -0.155865
                                5.915             0.211031 -0.110914
                                1.843             0.017151 0.298761
                                0.7124            -0.002015 0.585013
                                0.2637            0.000869 0.271159
[INPUT] 0    0    [1    /1   ]  13.454               1
[INPUT] 0    0    [1    /1   ]  1.843                1
[INPUT] 0    0    [1    /1   ]  0.7124               1
[INPUT] 0    0    [1    /1   ]  0.2637               1
[INPUT] 0    0    [1    /1   ]  0.08594              1
[INPUT] 0    0    [1    /1   ]  0.028                1
[INPUT] 1    0    [1    /1   ]  117.339              1
[INPUT] 1    0    [1    /1   ]  40.862               1
[INPUT] 1    0    [1    /1   ]  14.23                1
[INPUT] 1    0    [1    /1   ]  1.953                1
[INPUT] 1    0    [6    /1   ]  80.39             0.006347
                                18.63             0.044204
                                5.694             0.168514
                                1.953             0.361563
                                0.6702            0.442178
                                0.2166            0.243435
[INPUT] 1    0    [1    /1   ]  0.6702               1
[INPUT] 1    0    [1    /1   ]  0.2166               1
[INPUT] 1    0    [1    /1   ]  0.06568              1
[INPUT] 1    0    [1    /1   ]  0.0199               1
[INPUT] 2    0    [1    /1   ]  49.61                1
[INPUT] 2    0    [1    /1   ]  15                   1
[INPUT] 2    0    [1    /1   ]  5.014                1
[INPUT] 2    0    [1    /1   ]  1.725                1
[INPUT] 2    0    [1    /1   ]  0.586                1
[INPUT] 2    0    [1    /1   ]  0.207                1
[INPUT] 2    0    [1    /1   ]  0.0731               1
[INPUT] 3    0    [1    /1   ]  16.168               1
[INPUT] 3    0    [1    /1   ]  3.562                1
[INPUT] 3    0    [1    /1   ]  1.148                1
[INPUT] 3    0    [1    /1   ]  0.46                 1
[INPUT] 3    0    [1    /1   ]  0.184                1
[INPUT] 4    0    [1    /1   ]  2.376                1
[INPUT] 4    0    [1    /1   ]  0.924                1
[INPUT] 4    0    [1    /1   ]  0.359                1

nuclear repulsion = 0
point group symmetry = SO3, use subgroup D2h
symmetry origin: [0. 0. 0.]
symmetry axis x: [1. 0. 0.]
symmetry axis y: [0. 1. 0.]
symmetry axis z: [0. 0. 1.]
num. orbitals of irrep Ag = 33
num. orbitals of irrep B1g = 13
num. orbitals of irrep B2g = 13
num. orbitals of irrep B3g = 13
num. orbitals of irrep Au = 5
num. orbitals of irrep B1u = 19
num. orbitals of irrep B2u = 19
num. orbitals of irrep B3u = 19
number of shells = 33
number of NR pGTOs = 159
number of NR cGTOs = 134
basis = {'F': [[0, [88.88, 1.0]], [0, [34.581, 1.0]], [0, [74530.0, 9.5e-05, -2.2e-05], [11170.0, 0.000738, -0.000172], [2543.0, 0.003858, -0.000891], [721.0, 0.015926, -0.003748], [235.9, 0.054289, -0.012862], [85.6, 0.149513, -0.038061], [33.55, 0.308252, -0.086239], [13.93, 0.394853, -0.155865], [5.915, 0.211031, -0.110914], [1.843, 0.017151, 0.298761], [0.7124, -0.002015, 0.585013], [0.2637, 0.000869, 0.271159]], [0, [13.454, 1.0]], [0, [1.843, 1.0]], [0, [0.7124, 1.0]], [0, [0.2637, 1.0]], [0, [0.08594, 1.0]], [0, [0.028, 1.0]], [1, [117.339, 1.0]], [1, [40.862, 1.0]], [1, [14.23, 1.0]], [1, [1.953, 1.0]], [1, [80.39, 0.006347], [18.63, 0.044204], [5.694, 0.168514], [1.953, 0.361563], [0.6702, 0.442178], [0.2166, 0.243435]], [1, [0.6702, 1.0]], [1, [0.2166, 1.0]], [1, [0.06568, 1.0]], [1, [0.0199, 1.0]], [2, [49.61, 1.0]], [2, [15.0, 1.0]], [2, [5.014, 1.0]], [2, [1.725, 1.0]], [2, [0.586, 1.0]], [2, [0.207, 1.0]], [2, [0.0731, 1.0]], [3, [16.168, 1.0]], [3, [3.562, 1.0]], [3, [1.148, 1.0]], [3, [0.46, 1.0]], [3, [0.184, 1.0]], [4, [2.376, 1.0]], [4, [0.924, 1.0]], [4, [0.359, 1.0]]]}
ecp = {}
bas 0, expnt(s) = [88.88]
bas 1, expnt(s) = [34.581]
bas 2, expnt(s) = [7.453e+04 1.117e+04 2.543e+03 7.210e+02 2.359e+02 8.560e+01 3.355e+01
 1.393e+01 5.915e+00 1.843e+00 7.124e-01 2.637e-01]
bas 3, expnt(s) = [13.454]
bas 4, expnt(s) = [1.843]
bas 5, expnt(s) = [0.7124]
bas 6, expnt(s) = [0.2637]
bas 7, expnt(s) = [0.08594]
bas 8, expnt(s) = [0.028]
bas 9, expnt(s) = [117.339]
bas 10, expnt(s) = [40.862]
bas 11, expnt(s) = [14.23]
bas 12, expnt(s) = [1.953]
bas 13, expnt(s) = [80.39   18.63    5.694   1.953   0.6702  0.2166]
bas 14, expnt(s) = [0.6702]
bas 15, expnt(s) = [0.2166]
bas 16, expnt(s) = [0.06568]
bas 17, expnt(s) = [0.0199]
bas 18, expnt(s) = [49.61]
bas 19, expnt(s) = [15.]
bas 20, expnt(s) = [5.014]
bas 21, expnt(s) = [1.725]
bas 22, expnt(s) = [0.586]
bas 23, expnt(s) = [0.207]
bas 24, expnt(s) = [0.0731]
bas 25, expnt(s) = [16.168]
bas 26, expnt(s) = [3.562]
bas 27, expnt(s) = [1.148]
bas 28, expnt(s) = [0.46]
bas 29, expnt(s) = [0.184]
bas 30, expnt(s) = [2.376]
bas 31, expnt(s) = [0.924]
bas 32, expnt(s) = [0.359]
CPU time:         1.31
arg.atm = [[ 9 20  1 23  0  0]]
arg.bas = [[  0   0   1   1   0  24  25   0]
 [  0   0   1   1   0  26  27   0]
 [  0   0  12   2   0  28  40   0]
 [  0   0   1   1   0  64  65   0]
 [  0   0   1   1   0  66  67   0]
 [  0   0   1   1   0  68  69   0]
 [  0   0   1   1   0  70  71   0]
 [  0   0   1   1   0  72  73   0]
 [  0   0   1   1   0  74  75   0]
 [  0   1   1   1   0  76  77   0]
 [  0   1   1   1   0  78  79   0]
 [  0   1   1   1   0  80  81   0]
 [  0   1   1   1   0  82  83   0]
 [  0   1   6   1   0  84  90   0]
 [  0   1   1   1   0  96  97   0]
 [  0   1   1   1   0  98  99   0]
 [  0   1   1   1   0 100 101   0]
 [  0   1   1   1   0 102 103   0]
 [  0   2   1   1   0 104 105   0]
 [  0   2   1   1   0 106 107   0]
 [  0   2   1   1   0 108 109   0]
 [  0   2   1   1   0 110 111   0]
 [  0   2   1   1   0 112 113   0]
 [  0   2   1   1   0 114 115   0]
 [  0   2   1   1   0 116 117   0]
 [  0   3   1   1   0 118 119   0]
 [  0   3   1   1   0 120 121   0]
 [  0   3   1   1   0 122 123   0]
 [  0   3   1   1   0 124 125   0]
 [  0   3   1   1   0 126 127   0]
 [  0   4   1   1   0 128 129   0]
 [  0   4   1   1   0 130 131   0]
 [  0   4   1   1   0 132 133   0]]
arg.env = [ 0.00000000e+00  0.00000000e+00  0.00000000e+00  0.00000000e+00
  0.00000000e+00  0.00000000e+00  0.00000000e+00  0.00000000e+00
  0.00000000e+00  0.00000000e+00  0.00000000e+00  0.00000000e+00
  0.00000000e+00  0.00000000e+00  0.00000000e+00  0.00000000e+00
  0.00000000e+00  0.00000000e+00  0.00000000e+00  0.00000000e+00
  0.00000000e+00  0.00000000e+00  0.00000000e+00  0.00000000e+00
  8.88800000e+01  7.31337863e+01  3.45810000e+01  3.60282515e+01
  7.45300000e+04  1.11700000e+04  2.54300000e+03  7.21000000e+02
  2.35900000e+02  8.56000000e+01  3.35500000e+01  1.39300000e+01
  5.91500000e+00  1.84300000e+00  7.12400000e-01  2.63700000e-01
  1.08264842e+00  2.02587078e+00  3.49049879e+00  5.59852547e+00
  8.25606866e+00  1.06304042e+01  1.08565240e+01  7.19306985e+00
  2.02221728e+00  6.85407649e-02 -3.94760311e-03  8.07919094e-04
 -2.50718237e-01 -4.72153519e-01 -8.06124978e-01 -1.31754645e+00
 -1.95600232e+00 -2.70614100e+00 -3.03730223e+00 -2.83940175e+00
 -1.06283864e+00  1.19394084e+00  1.14610222e+00  2.52099233e-01
  1.34540000e+01  1.77481705e+01  1.84300000e+00  3.99630867e+00
  7.12400000e-01  1.95910610e+00  2.63700000e-01  9.29710255e-01
  8.59400000e-02  4.01015848e-01  2.80000000e-02  1.72935259e-01
  1.17339000e+02  1.12664572e+03  4.08620000e+01  3.01393524e+02
  1.42300000e+01  8.06288597e+01  1.95300000e+00  6.73538145e+00
  8.03900000e+01  1.86300000e+01  5.69400000e+00  1.95300000e+00
  6.70200000e-01  2.16600000e-01  4.45713103e+00  4.99128084e+00
  4.32406470e+00  2.43526459e+00  7.82234612e-01  1.04939853e-01
  6.70200000e-01  1.76904924e+00  2.16600000e-01  4.31079587e-01
  6.56800000e-02  9.70009132e-02  1.99000000e-02  2.18047312e-02
  4.96100000e+01  2.41977805e+03  1.50000000e+01  2.98324615e+02
  5.01400000e+00  4.38381242e+01  1.72500000e+00  6.77501576e+00
  5.86000000e-01  1.02411851e+00  2.07000000e-01  1.65759142e-01
  7.31000000e-02  2.68154319e-02  1.61680000e+01  1.03392024e+03
  3.56200000e+00  3.43812507e+01  1.14800000e+00  2.69078879e+00
  4.60000000e-01  3.43728453e-01  1.84000000e-01  4.37371483e-02
  2.37600000e+00  1.42068175e+01  9.24000000e-01  1.05807639e+00
  3.59000000e-01  7.86011384e-02]
ecpbas  = []


******** <class 'pyscf.scf.uhf_symm.SymAdaptedUHF'> ********
method = SymAdaptedUHF
initial guess = atom
damping factor = 0
level_shift factor = 0
DIIS = <class 'pyscf.scf.diis.CDIIS'>
diis_start_cycle = 1
diis_space = 8
diis_damp = 0
SCF conv_tol = 1e-13
SCF conv_tol_grad = None
SCF ddm_tol = 1e-12
SCF max_cycles = 9999
direct_scf = False
chkfile to save SCF result = out.chk
max_memory 32000 MB (current use 123 MB)
number electrons alpha = 5  beta = 3
irrep_nelec {'Ag': 4, 'B3u': 2, 'B2u': 1, 'B1u': 1}
Freeze 8 electrons in irreps ['Ag', 'B3u', 'B2u', 'B1u']
    0 free electrons in irreps B1g B2g B3g Au
cond(S) = 142958.01972856538

WARN: Singularity detected in overlap matrix (condition number = 1.43e+05). SCF may be inaccurate and hard to converge.

Set gradient conv threshold to 3.16228e-07
Spherically averaged atomic HF for {'F'}


******** <class '__main__.CustomAtomSphAverageRHF'> ********
method = CustomAtomSphAverageRHF
initial guess = minao
damping factor = 0
level_shift factor = 0
DIIS = <class 'pyscf.scf.diis.CDIIS'>
diis_start_cycle = 1
diis_space = 8
diis_damp = 0
SCF conv_tol = 1e-09
SCF conv_tol_grad = None
SCF ddm_tol = 1e-10
SCF max_cycles = 9999
direct_scf = False
chkfile to save SCF result = /tmp/tmp49nqpsxl
max_memory 32000 MB (current use 125 MB)
atom = F
Set gradient conv threshold to 3.16228e-05
Initial guess from minao.
Nelec from initial guess = 8.999889217046212
E1 = -139.0483640033929  E_coul = 39.989148757246234
init E= -99.0592152461467
l = 0  e_0 = -26.4090881
l = 0  e_1 = -1.59662037
l = 0  e_2 = 0.0446920968
l = 0  e_3 = 0.27308458
l = 0  e_4 = 1.21175665
l = 0  e_5 = 4.75220015
l = 0  e_6 = 18.2766285
l = 0  e_7 = 63.6965396
l = 0  e_8 = 206.792801
l = 0  e_9 = 840.950679
l = 1  e_0 = -0.612922542
l = 1  e_1 = 0.046852304
l = 1  e_2 = 0.222356775
l = 1  e_3 = 0.904081314
l = 1  e_4 = 3.33635227
l = 1  e_5 = 11.2726492
l = 1  e_6 = 35.6841883
l = 1  e_7 = 113.638856
l = 1  e_8 = 367.971169
l = 2  e_0 = 0.232876065
l = 2  e_1 = 0.781506138
l = 2  e_2 = 2.11396728
l = 2  e_3 = 5.70882615
l = 2  e_4 = 16.4642742
l = 2  e_5 = 51.4048728
l = 2  e_6 = 179.071156
l = 3  e_0 = 0.756808304
l = 3  e_1 = 2.24531865
l = 3  e_2 = 5.7075127
l = 3  e_3 = 15.8558637
l = 3  e_4 = 65.3463617
l = 4  e_0 = 1.85151399
l = 4  e_1 = 5.34488902
l = 4  e_2 = 13.9590209
    CPU time for initialize scf      1.27 sec, wall time      0.40 sec
l = 0  e_0 = -26.4090881
l = 0  e_1 = -1.59662037
l = 0  e_2 = 0.0446920968
l = 0  e_3 = 0.27308458
l = 0  e_4 = 1.21175665
l = 0  e_5 = 4.75220015
l = 0  e_6 = 18.2766285
l = 0  e_7 = 63.6965396
l = 0  e_8 = 206.792801
l = 0  e_9 = 840.950679
l = 1  e_0 = -0.612922542
l = 1  e_1 = 0.046852304
l = 1  e_2 = 0.222356775
l = 1  e_3 = 0.904081314
l = 1  e_4 = 3.33635227
l = 1  e_5 = 11.2726492
l = 1  e_6 = 35.6841883
l = 1  e_7 = 113.638856
l = 1  e_8 = 367.971169
l = 2  e_0 = 0.232876065
l = 2  e_1 = 0.781506138
l = 2  e_2 = 2.11396728
l = 2  e_3 = 5.70882615
l = 2  e_4 = 16.4642742
l = 2  e_5 = 51.4048728
l = 2  e_6 = 179.071156
l = 3  e_0 = 0.756808304
l = 3  e_1 = 2.24531865
l = 3  e_2 = 5.7075127
l = 3  e_3 = 15.8558637
l = 3  e_4 = 65.3463617
l = 4  e_0 = 1.85151399
l = 4  e_1 = 5.34488902
l = 4  e_2 = 13.9590209
l = 0  occ = 2 + 0
l = 1  occ = 0 + 1.667
l = 2  occ = 0 + 0
l = 3  occ = 0 + 0
E1 = -138.7295877043659  E_coul = 39.66488263174396
cycle= 1 E= -99.064705072622  delta_E= -0.00549  |g|=    0  |ddm|= 0.218
    CPU time for cycle= 1      0.16 sec, wall time      0.04 sec
diis-norm(errvec)=0.0708613
diis-c [-0.00502133  1.        ]
l = 0  e_0 = -26.4955502
l = 0  e_1 = -1.62102491
l = 0  e_2 = 0.0449075778
l = 0  e_3 = 0.272492864
l = 0  e_4 = 1.20599473
l = 0  e_5 = 4.73189847
l = 0  e_6 = 18.2287537
l = 0  e_7 = 63.6229888
l = 0  e_8 = 206.699404
l = 0  e_9 = 840.834295
l = 1  e_0 = -0.633435147
l = 1  e_1 = 0.0468586748
l = 1  e_2 = 0.221959497
l = 1  e_3 = 0.899818186
l = 1  e_4 = 3.3187069
l = 1  e_5 = 11.2320451
l = 1  e_6 = 35.6193652
l = 1  e_7 = 113.553865
l = 1  e_8 = 367.868595
l = 2  e_0 = 0.233239822
l = 2  e_1 = 0.781405062
l = 2  e_2 = 2.10826461
l = 2  e_3 = 5.69005063
l = 2  e_4 = 16.4223215
l = 2  e_5 = 51.3369078
l = 2  e_6 = 178.98223
l = 3  e_0 = 0.757472787
l = 3  e_1 = 2.24523929
l = 3  e_2 = 5.69943329
l = 3  e_3 = 15.8241164
l = 3  e_4 = 65.2767808
l = 4  e_0 = 1.85252839
l = 4  e_1 = 5.34310456
l = 4  e_2 = 13.9412102
l = 0  occ = 2 + 0
l = 1  occ = 0 + 1.667
l = 2  occ = 0 + 0
l = 3  occ = 0 + 0
E1 = -138.9299736549112  E_coul = 39.86497785116339
cycle= 2 E= -99.0649958037478  delta_E= -0.000291  |g|=    0  |ddm|= 0.0298
    CPU time for cycle= 2      0.18 sec, wall time      0.04 sec
diis-norm(errvec)=0.0349375
diis-c [-1.15842081e-04  3.21834790e-01  6.78165210e-01]
l = 0  e_0 = -26.4650499
l = 0  e_1 = -1.60998162
l = 0  e_2 = 0.0450930392
l = 0  e_3 = 0.27346982
l = 0  e_4 = 1.20956413
l = 0  e_5 = 4.74206457
l = 0  e_6 = 18.248685
l = 0  e_7 = 63.6503012
l = 0  e_8 = 206.730969
l = 0  e_9 = 840.868418
l = 1  e_0 = -0.622895179
l = 1  e_1 = 0.0468911959
l = 1  e_2 = 0.222465119
l = 1  e_3 = 0.903009453
l = 1  e_4 = 3.32829432
l = 1  e_5 = 11.2498317
l = 1  e_6 = 35.644307
l = 1  e_7 = 113.583817
l = 1  e_8 = 367.90154
l = 2  e_0 = 0.23337821
l = 2  e_1 = 0.782660909
l = 2  e_2 = 2.11286667
l = 2  e_3 = 5.70062039
l = 2  e_4 = 16.4410574
l = 2  e_5 = 51.3631795
l = 2  e_6 = 179.013359
l = 3  e_0 = 0.757777824
l = 3  e_1 = 2.24716216
l = 3  e_2 = 5.70597413
l = 3  e_3 = 15.8397406
l = 3  e_4 = 65.3036926
l = 4  e_0 = 1.85321555
l = 4  e_1 = 5.34673453
l = 4  e_2 = 13.9520714
l = 0  occ = 2 + 0
l = 1  occ = 0 + 1.667
l = 2  occ = 0 + 0
l = 3  occ = 0 + 0
E1 = -138.86345084033653  E_coul = 39.7983754223983
cycle= 3 E= -99.0650754179382  delta_E= -7.96e-05  |g|=    0  |ddm|= 0.0117
    CPU time for cycle= 3      0.17 sec, wall time      0.04 sec
diis-norm(errvec)=0.00193669
diis-c [-9.99732092e-07 -5.12270131e-02 -6.72516333e-02  1.11847865e+00]
l = 0  e_0 = -26.4654686
l = 0  e_1 = -1.60998482
l = 0  e_2 = 0.045137007
l = 0  e_3 = 0.273573278
l = 0  e_4 = 1.20968816
l = 0  e_5 = 4.74221835
l = 0  e_6 = 18.2486135
l = 0  e_7 = 63.6499917
l = 0  e_8 = 206.730615
l = 0  e_9 = 840.868173
l = 1  e_0 = -0.62268574
l = 1  e_1 = 0.0468955677
l = 1  e_2 = 0.222518273
l = 1  e_3 = 0.90320628
l = 1  e_4 = 3.32855142
l = 1  e_5 = 11.2498988
l = 1  e_6 = 35.6440845
l = 1  e_7 = 113.583435
l = 1  e_8 = 367.901204
l = 2  e_0 = 0.233424781
l = 2  e_1 = 0.782828987
l = 2  e_2 = 2.11312977
l = 2  e_3 = 5.70090506
l = 2  e_4 = 16.4410961
l = 2  e_5 = 51.3628927
l = 2  e_6 = 179.012949
l = 3  e_0 = 0.757869353
l = 3  e_1 = 2.24742406
l = 3  e_2 = 5.7063432
l = 3  e_3 = 15.8399122
l = 3  e_4 = 65.303364
l = 4  e_0 = 1.85338612
l = 4  e_1 = 5.34711374
l = 4  e_2 = 13.9524103
l = 0  occ = 2 + 0
l = 1  occ = 0 + 1.667
l = 2  occ = 0 + 0
l = 3  occ = 0 + 0
E1 = -138.86606396089226  E_coul = 39.80098778200189
cycle= 4 E= -99.0650761788904  delta_E= -7.61e-07  |g|=    0  |ddm|= 0.000793
    CPU time for cycle= 4      0.17 sec, wall time      0.04 sec
diis-norm(errvec)=0.000131316
diis-c [-8.21626491e-10  1.30160210e-03 -4.54580119e-04 -9.74038971e-02
  1.09655688e+00]
l = 0  e_0 = -26.4654281
l = 0  e_1 = -1.60996553
l = 0  e_2 = 0.0451405527
l = 0  e_3 = 0.273581523
l = 0  e_4 = 1.20970085
l = 0  e_5 = 4.74224643
l = 0  e_6 = 18.2486494
l = 0  e_7 = 63.6500303
l = 0  e_8 = 206.730661
l = 0  e_9 = 840.868236
l = 1  e_0 = -0.622650592
l = 1  e_1 = 0.046895829
l = 1  e_2 = 0.222522593
l = 1  e_3 = 0.903225005
l = 1  e_4 = 3.32858528
l = 1  e_5 = 11.2499386
l = 1  e_6 = 35.6441234
l = 1  e_7 = 113.583476
l = 1  e_8 = 367.901255
l = 2  e_0 = 0.2334285
l = 2  e_1 = 0.782841868
l = 2  e_2 = 2.11315413
l = 2  e_3 = 5.70094252
l = 2  e_4 = 16.4411361
l = 2  e_5 = 51.3629309
l = 2  e_6 = 179.012989
l = 3  e_0 = 0.757876401
l = 3  e_1 = 2.24744395
l = 3  e_2 = 5.70637699
l = 3  e_3 = 15.8399527
l = 3  e_4 = 65.3034017
l = 4  e_0 = 1.85339904
l = 4  e_1 = 5.34714327
l = 4  e_2 = 13.9524498
l = 0  occ = 2 + 0
l = 1  occ = 0 + 1.667
l = 2  occ = 0 + 0
l = 3  occ = 0 + 0
E1 = -138.8661214239247  E_coul = 39.80104524017945
cycle= 5 E= -99.0650761837453  delta_E= -4.85e-09  |g|=    0  |ddm|= 6.82e-05
    CPU time for cycle= 5      0.17 sec, wall time      0.04 sec
diis-norm(errvec)=3.68612e-06
diis-c [-1.95274677e-12 -7.97492316e-05  4.60251728e-05  8.47989393e-03
 -1.08601897e-01  1.10015573e+00]
l = 0  e_0 = -26.4654267
l = 0  e_1 = -1.60996488
l = 0  e_2 = 0.045140628
l = 0  e_3 = 0.273581646
l = 0  e_4 = 1.20970111
l = 0  e_5 = 4.7422471
l = 0  e_6 = 18.2486505
l = 0  e_7 = 63.6500316
l = 0  e_8 = 206.730662
l = 0  e_9 = 840.868237
l = 1  e_0 = -0.622650063
l = 1  e_1 = 0.046895839
l = 1  e_2 = 0.222522691
l = 1  e_3 = 0.903225272
l = 1  e_4 = 3.32858576
l = 1  e_5 = 11.2499395
l = 1  e_6 = 35.6441246
l = 1  e_7 = 113.583477
l = 1  e_8 = 367.901256
l = 2  e_0 = 0.233428576
l = 2  e_1 = 0.782842006
l = 2  e_2 = 2.11315445
l = 2  e_3 = 5.7009431
l = 2  e_4 = 16.441137
l = 2  e_5 = 51.3629322
l = 2  e_6 = 179.012991
l = 3  e_0 = 0.757876527
l = 3  e_1 = 2.24744417
l = 3  e_2 = 5.70637736
l = 3  e_3 = 15.8399535
l = 3  e_4 = 65.3034031
l = 4  e_0 = 1.85339924
l = 4  e_1 = 5.34714355
l = 4  e_2 = 13.9524503
l = 0  occ = 2 + 0
l = 1  occ = 0 + 1.667
l = 2  occ = 0 + 0
l = 3  occ = 0 + 0
E1 = -138.8661189674719  E_coul = 39.80104278372411
cycle= 6 E= -99.0650761837478  delta_E= -2.52e-12  |g|=    0  |ddm|= 4.35e-06
    CPU time for cycle= 6      0.17 sec, wall time      0.04 sec
diis-norm(errvec)=2.16182e-07
diis-c [-1.31526584e-14  6.35763018e-06 -4.12919883e-06 -7.17878660e-04
  9.75520330e-03 -1.34079210e-01  1.12503966e+00]
l = 0  e_0 = -26.4654267
l = 0  e_1 = -1.60996484
l = 0  e_2 = 0.0451406319
l = 0  e_3 = 0.273581654
l = 0  e_4 = 1.20970113
l = 0  e_5 = 4.74224712
l = 0  e_6 = 18.2486505
l = 0  e_7 = 63.6500316
l = 0  e_8 = 206.730662
l = 0  e_9 = 840.868237
l = 1  e_0 = -0.622650068
l = 1  e_1 = 0.0468958392
l = 1  e_2 = 0.222522694
l = 1  e_3 = 0.903225279
l = 1  e_4 = 3.32858576
l = 1  e_5 = 11.2499395
l = 1  e_6 = 35.6441247
l = 1  e_7 = 113.583477
l = 1  e_8 = 367.901256
l = 2  e_0 = 0.233428579
l = 2  e_1 = 0.782842015
l = 2  e_2 = 2.11315446
l = 2  e_3 = 5.70094311
l = 2  e_4 = 16.441137
l = 2  e_5 = 51.3629322
l = 2  e_6 = 179.012991
l = 3  e_0 = 0.757876533
l = 3  e_1 = 2.24744418
l = 3  e_2 = 5.70637738
l = 3  e_3 = 15.8399535
l = 3  e_4 = 65.3034031
l = 4  e_0 = 1.85339925
l = 4  e_1 = 5.34714356
l = 4  e_2 = 13.9524503
l = 0  occ = 2 + 0
l = 1  occ = 0 + 1.667
l = 2  occ = 0 + 0
l = 3  occ = 0 + 0
E1 = -138.86611910141193  E_coul = 39.801042917664056
cycle= 7 E= -99.0650761837479  delta_E= -8.53e-14  |g|=    0  |ddm|= 1.13e-07
    CPU time for cycle= 7      0.17 sec, wall time      0.04 sec
diis-norm(errvec)=4.50693e-08
Linear dependence found in DIIS error vectors.
diis-c [-3.77351022e-15  3.41344231e-06 -2.70261510e-06 -3.77913382e-04
  5.11090527e-03 -6.73934756e-02  4.97849931e-01  5.64809842e-01]
l = 0  e_0 = -26.4654267
l = 0  e_1 = -1.60996483
l = 0  e_2 = 0.0451406323
l = 0  e_3 = 0.273581656
l = 0  e_4 = 1.20970113
l = 0  e_5 = 4.74224713
l = 0  e_6 = 18.2486505
l = 0  e_7 = 63.6500316
l = 0  e_8 = 206.730662
l = 0  e_9 = 840.868237
l = 1  e_0 = -0.622650061
l = 1  e_1 = 0.0468958393
l = 1  e_2 = 0.222522694
l = 1  e_3 = 0.903225281
l = 1  e_4 = 3.32858577
l = 1  e_5 = 11.2499395
l = 1  e_6 = 35.6441247
l = 1  e_7 = 113.583477
l = 1  e_8 = 367.901256
l = 2  e_0 = 0.23342858
l = 2  e_1 = 0.782842016
l = 2  e_2 = 2.11315446
l = 2  e_3 = 5.70094312
l = 2  e_4 = 16.441137
l = 2  e_5 = 51.3629322
l = 2  e_6 = 179.012991
l = 3  e_0 = 0.757876533
l = 3  e_1 = 2.24744418
l = 3  e_2 = 5.70637738
l = 3  e_3 = 15.8399535
l = 3  e_4 = 65.3034031
l = 4  e_0 = 1.85339925
l = 4  e_1 = 5.34714357
l = 4  e_2 = 13.9524503
l = 0  occ = 2 + 0
l = 1  occ = 0 + 1.667
l = 2  occ = 0 + 0
l = 3  occ = 0 + 0
E1 = -138.86611907749673  E_coul = 39.80104289374883
cycle= 8 E= -99.0650761837479  delta_E= -4.26e-14  |g|=    0  |ddm|= 1.61e-08
    CPU time for cycle= 8      0.17 sec, wall time      0.04 sec
diis-norm(errvec)=2.32289e-08
Linear dependence found in DIIS error vectors.
diis-c [-1.83816871e-15  2.38165239e-06 -2.01769643e-06 -2.61545595e-04
  3.52984855e-03 -4.57093404e-02  3.17752658e-01  3.61260919e-01
  3.63427096e-01]
l = 0  e_0 = -26.4654267
l = 0  e_1 = -1.60996483
l = 0  e_2 = 0.0451406324
l = 0  e_3 = 0.273581656
l = 0  e_4 = 1.20970114
l = 0  e_5 = 4.74224713
l = 0  e_6 = 18.2486505
l = 0  e_7 = 63.6500316
l = 0  e_8 = 206.730662
l = 0  e_9 = 840.868237
l = 1  e_0 = -0.622650059
l = 1  e_1 = 0.0468958393
l = 1  e_2 = 0.222522695
l = 1  e_3 = 0.903225282
l = 1  e_4 = 3.32858577
l = 1  e_5 = 11.2499395
l = 1  e_6 = 35.6441247
l = 1  e_7 = 113.583477
l = 1  e_8 = 367.901256
l = 2  e_0 = 0.23342858
l = 2  e_1 = 0.782842017
l = 2  e_2 = 2.11315446
l = 2  e_3 = 5.70094312
l = 2  e_4 = 16.441137
l = 2  e_5 = 51.3629322
l = 2  e_6 = 179.012991
l = 3  e_0 = 0.757876534
l = 3  e_1 = 2.24744419
l = 3  e_2 = 5.70637738
l = 3  e_3 = 15.8399535
l = 3  e_4 = 65.3034031
l = 4  e_0 = 1.85339925
l = 4  e_1 = 5.34714357
l = 4  e_2 = 13.9524503
l = 0  occ = 2 + 0
l = 1  occ = 0 + 1.667
l = 2  occ = 0 + 0
l = 3  occ = 0 + 0
E1 = -138.86611906953868  E_coul = 39.801042885790736
cycle= 9 E= -99.0650761837479  delta_E= -4.26e-14  |g|=    0  |ddm|= 5.47e-09
    CPU time for cycle= 9      0.17 sec, wall time      0.04 sec
diis-norm(errvec)=1.59283e-08
Linear dependence found in DIIS error vectors.
diis-c [-2.50696045e-15  2.62869778e-01 -2.17785982e-06 -8.67737658e-05
  1.44752875e-03 -2.57037225e-02  2.37378781e-01  2.61550297e-01
  2.62546289e-01]
l = 0  e_0 = -26.4654267
l = 0  e_1 = -1.60996483
l = 0  e_2 = 0.0451406324
l = 0  e_3 = 0.273581657
l = 0  e_4 = 1.20970114
l = 0  e_5 = 4.74224713
l = 0  e_6 = 18.2486505
l = 0  e_7 = 63.6500316
l = 0  e_8 = 206.730662
l = 0  e_9 = 840.868237
l = 1  e_0 = -0.622650058
l = 1  e_1 = 0.0468958393
l = 1  e_2 = 0.222522695
l = 1  e_3 = 0.903225283
l = 1  e_4 = 3.32858577
l = 1  e_5 = 11.2499395
l = 1  e_6 = 35.6441247
l = 1  e_7 = 113.583477
l = 1  e_8 = 367.901256
l = 2  e_0 = 0.23342858
l = 2  e_1 = 0.782842017
l = 2  e_2 = 2.11315446
l = 2  e_3 = 5.70094312
l = 2  e_4 = 16.4411371
l = 2  e_5 = 51.3629323
l = 2  e_6 = 179.012991
l = 3  e_0 = 0.757876534
l = 3  e_1 = 2.24744419
l = 3  e_2 = 5.70637738
l = 3  e_3 = 15.8399535
l = 3  e_4 = 65.3034031
l = 4  e_0 = 1.85339925
l = 4  e_1 = 5.34714357
l = 4  e_2 = 13.9524503
l = 0  occ = 2 + 0
l = 1  occ = 0 + 1.667
l = 2  occ = 0 + 0
l = 3  occ = 0 + 0
E1 = -138.8661190634778  E_coul = 39.80104287973005
cycle= 10 E= -99.0650761837478  delta_E= 1.85e-13  |g|=    0  |ddm|= 1.37e-09
    CPU time for cycle= 10      0.17 sec, wall time      0.04 sec
diis-norm(errvec)=1.27425e-08
Linear dependence found in DIIS error vectors.
diis-c [-9.30960180e-17  2.91650368e-01  2.94336234e-01  2.81566588e-05
 -4.35844305e-04  8.02507523e-03 -1.15254952e-01  2.42396397e-01
  2.79254566e-01]
l = 0  e_0 = -26.4654267
l = 0  e_1 = -1.60996482
l = 0  e_2 = 0.0451406326
l = 0  e_3 = 0.273581658
l = 0  e_4 = 1.20970114
l = 0  e_5 = 4.74224713
l = 0  e_6 = 18.2486505
l = 0  e_7 = 63.6500316
l = 0  e_8 = 206.730662
l = 0  e_9 = 840.868237
l = 1  e_0 = -0.622650054
l = 1  e_1 = 0.0468958393
l = 1  e_2 = 0.222522695
l = 1  e_3 = 0.903225285
l = 1  e_4 = 3.32858578
l = 1  e_5 = 11.2499395
l = 1  e_6 = 35.6441247
l = 1  e_7 = 113.583477
l = 1  e_8 = 367.901256
l = 2  e_0 = 0.23342858
l = 2  e_1 = 0.782842018
l = 2  e_2 = 2.11315447
l = 2  e_3 = 5.70094312
l = 2  e_4 = 16.4411371
l = 2  e_5 = 51.3629323
l = 2  e_6 = 179.012991
l = 3  e_0 = 0.757876534
l = 3  e_1 = 2.24744419
l = 3  e_2 = 5.70637739
l = 3  e_3 = 15.8399535
l = 3  e_4 = 65.3034031
l = 4  e_0 = 1.85339925
l = 4  e_1 = 5.34714357
l = 4  e_2 = 13.9524503
l = 0  occ = 2 + 0
l = 1  occ = 0 + 1.667
l = 2  occ = 0 + 0
l = 3  occ = 0 + 0
E1 = -138.86611904999964  E_coul = 39.80104286625178
cycle= 11 E= -99.0650761837479  delta_E= -9.95e-14  |g|=    0  |ddm|= 1.12e-08
    CPU time for cycle= 11      0.17 sec, wall time      0.04 sec
diis-norm(errvec)=1.34272e-09
Linear dependence found in DIIS error vectors.
diis-c [-1.19189866e-16  2.07570917e-01  2.06746452e-01  2.12961617e-01
  2.79961437e-05 -2.25177722e-03 -2.71354859e-02  1.97131214e-01
  2.04949066e-01]
l = 0  e_0 = -26.4654267
l = 0  e_1 = -1.60996482
l = 0  e_2 = 0.0451406326
l = 0  e_3 = 0.273581658
l = 0  e_4 = 1.20970114
l = 0  e_5 = 4.74224714
l = 0  e_6 = 18.2486505
l = 0  e_7 = 63.6500316
l = 0  e_8 = 206.730662
l = 0  e_9 = 840.868237
l = 1  e_0 = -0.622650053
l = 1  e_1 = 0.0468958393
l = 1  e_2 = 0.222522695
l = 1  e_3 = 0.903225285
l = 1  e_4 = 3.32858578
l = 1  e_5 = 11.2499395
l = 1  e_6 = 35.6441247
l = 1  e_7 = 113.583477
l = 1  e_8 = 367.901256
l = 2  e_0 = 0.23342858
l = 2  e_1 = 0.782842018
l = 2  e_2 = 2.11315447
l = 2  e_3 = 5.70094312
l = 2  e_4 = 16.4411371
l = 2  e_5 = 51.3629323
l = 2  e_6 = 179.012991
l = 3  e_0 = 0.757876534
l = 3  e_1 = 2.24744419
l = 3  e_2 = 5.70637739
l = 3  e_3 = 15.8399535
l = 3  e_4 = 65.3034031
l = 4  e_0 = 1.85339925
l = 4  e_1 = 5.34714357
l = 4  e_2 = 13.9524503
l = 0  occ = 2 + 0
l = 1  occ = 0 + 1.667
l = 2  occ = 0 + 0
l = 3  occ = 0 + 0
E1 = -138.8661190426533  E_coul = 39.80104285890552
cycle= 12 E= -99.0650761837478  delta_E= 7.11e-14  |g|=    0  |ddm|= 2.91e-09
    CPU time for cycle= 12      0.17 sec, wall time      0.04 sec
diis-norm(errvec)=4.8649e-09
Linear dependence found in DIIS error vectors.
diis-c [-1.11641685e-15  1.75197840e-01  1.74825486e-01  1.81700409e-01
  1.79751640e-01 -4.67547894e-04 -4.61926742e-02  1.63034540e-01
  1.72150307e-01]
l = 0  e_0 = -26.4654267
l = 0  e_1 = -1.60996482
l = 0  e_2 = 0.0451406327
l = 0  e_3 = 0.273581658
l = 0  e_4 = 1.20970114
l = 0  e_5 = 4.74224714
l = 0  e_6 = 18.2486505
l = 0  e_7 = 63.6500316
l = 0  e_8 = 206.730662
l = 0  e_9 = 840.868237
l = 1  e_0 = -0.622650053
l = 1  e_1 = 0.0468958393
l = 1  e_2 = 0.222522695
l = 1  e_3 = 0.903225285
l = 1  e_4 = 3.32858578
l = 1  e_5 = 11.2499395
l = 1  e_6 = 35.6441247
l = 1  e_7 = 113.583477
l = 1  e_8 = 367.901256
l = 2  e_0 = 0.23342858
l = 2  e_1 = 0.782842019
l = 2  e_2 = 2.11315447
l = 2  e_3 = 5.70094313
l = 2  e_4 = 16.4411371
l = 2  e_5 = 51.3629323
l = 2  e_6 = 179.012991
l = 3  e_0 = 0.757876534
l = 3  e_1 = 2.24744419
l = 3  e_2 = 5.70637739
l = 3  e_3 = 15.8399535
l = 3  e_4 = 65.3034031
l = 4  e_0 = 1.85339925
l = 4  e_1 = 5.34714357
l = 4  e_2 = 13.9524503
l = 0  occ = 2 + 0
l = 1  occ = 0 + 1.667
l = 2  occ = 0 + 0
l = 3  occ = 0 + 0
E1 = -138.86611904303413  E_coul = 39.80104285928617
cycle= 13 E= -99.065076183748  delta_E= -1.71e-13  |g|=    0  |ddm|= 1.27e-09
    CPU time for cycle= 13      0.17 sec, wall time      0.04 sec
diis-norm(errvec)=5.04387e-09
Linear dependence found in DIIS error vectors.
diis-c [-1.37960830e-16  1.46394117e-01  1.47318709e-01  1.55332620e-01
  1.55677015e-01  1.56236044e-01 -3.38735233e-02  1.30482475e-01
  1.42432544e-01]
l = 0  e_0 = -26.4654267
l = 0  e_1 = -1.60996482
l = 0  e_2 = 0.0451406327
l = 0  e_3 = 0.273581658
l = 0  e_4 = 1.20970114
l = 0  e_5 = 4.74224714
l = 0  e_6 = 18.2486505
l = 0  e_7 = 63.6500316
l = 0  e_8 = 206.730662
l = 0  e_9 = 840.868237
l = 1  e_0 = -0.622650053
l = 1  e_1 = 0.0468958393
l = 1  e_2 = 0.222522695
l = 1  e_3 = 0.903225285
l = 1  e_4 = 3.32858578
l = 1  e_5 = 11.2499395
l = 1  e_6 = 35.6441247
l = 1  e_7 = 113.583477
l = 1  e_8 = 367.901256
l = 2  e_0 = 0.23342858
l = 2  e_1 = 0.782842018
l = 2  e_2 = 2.11315447
l = 2  e_3 = 5.70094312
l = 2  e_4 = 16.4411371
l = 2  e_5 = 51.3629323
l = 2  e_6 = 179.012991
l = 3  e_0 = 0.757876534
l = 3  e_1 = 2.24744419
l = 3  e_2 = 5.70637739
l = 3  e_3 = 15.8399535
l = 3  e_4 = 65.3034031
l = 4  e_0 = 1.85339925
l = 4  e_1 = 5.34714357
l = 4  e_2 = 13.9524503
l = 0  occ = 2 + 0
l = 1  occ = 0 + 1.667
l = 2  occ = 0 + 0
l = 3  occ = 0 + 0
E1 = -138.8661190448099  E_coul = 39.801042861062015
cycle= 14 E= -99.0650761837479  delta_E= 8.53e-14  |g|=    0  |ddm|= 3.08e-10
    CPU time for cycle= 14      0.17 sec, wall time      0.04 sec
diis-norm(errvec)=3.90286e-09
Linear dependence found in DIIS error vectors.
diis-c [1.66533454e-16 1.25000000e-01 1.25000000e-01 1.25000000e-01
 1.25000000e-01 1.25000000e-01 1.25000000e-01 1.25000000e-01
 1.25000000e-01]
l = 0  e_0 = -26.4654267
l = 0  e_1 = -1.60996482
l = 0  e_2 = 0.0451406326
l = 0  e_3 = 0.273581658
l = 0  e_4 = 1.20970114
l = 0  e_5 = 4.74224713
l = 0  e_6 = 18.2486505
l = 0  e_7 = 63.6500316
l = 0  e_8 = 206.730662
l = 0  e_9 = 840.868237
l = 1  e_0 = -0.622650053
l = 1  e_1 = 0.0468958393
l = 1  e_2 = 0.222522695
l = 1  e_3 = 0.903225285
l = 1  e_4 = 3.32858578
l = 1  e_5 = 11.2499395
l = 1  e_6 = 35.6441247
l = 1  e_7 = 113.583477
l = 1  e_8 = 367.901256
l = 2  e_0 = 0.23342858
l = 2  e_1 = 0.782842018
l = 2  e_2 = 2.11315447
l = 2  e_3 = 5.70094312
l = 2  e_4 = 16.4411371
l = 2  e_5 = 51.3629323
l = 2  e_6 = 179.012991
l = 3  e_0 = 0.757876534
l = 3  e_1 = 2.24744419
l = 3  e_2 = 5.70637739
l = 3  e_3 = 15.8399535
l = 3  e_4 = 65.3034031
l = 4  e_0 = 1.85339925
l = 4  e_1 = 5.34714357
l = 4  e_2 = 13.9524503
l = 0  occ = 2 + 0
l = 1  occ = 0 + 1.667
l = 2  occ = 0 + 0
l = 3  occ = 0 + 0
E1 = -138.86611904563046  E_coul = 39.801042861882635
cycle= 15 E= -99.0650761837478  delta_E= 5.68e-14  |g|=    0  |ddm|= 9.63e-10
    CPU time for cycle= 15      0.17 sec, wall time      0.04 sec
diis-norm(errvec)=3.19959e-09
Linear dependence found in DIIS error vectors.
diis-c [-3.91945375e-16  1.25000000e-01  1.25000000e-01  1.25000000e-01
  1.25000000e-01  1.25000000e-01  1.25000000e-01  1.25000000e-01
  1.25000000e-01]
l = 0  e_0 = -26.4654267
l = 0  e_1 = -1.60996482
l = 0  e_2 = 0.0451406326
l = 0  e_3 = 0.273581658
l = 0  e_4 = 1.20970114
l = 0  e_5 = 4.74224713
l = 0  e_6 = 18.2486505
l = 0  e_7 = 63.6500316
l = 0  e_8 = 206.730662
l = 0  e_9 = 840.868237
l = 1  e_0 = -0.622650054
l = 1  e_1 = 0.0468958393
l = 1  e_2 = 0.222522695
l = 1  e_3 = 0.903225284
l = 1  e_4 = 3.32858578
l = 1  e_5 = 11.2499395
l = 1  e_6 = 35.6441247
l = 1  e_7 = 113.583477
l = 1  e_8 = 367.901256
l = 2  e_0 = 0.23342858
l = 2  e_1 = 0.782842018
l = 2  e_2 = 2.11315447
l = 2  e_3 = 5.70094312
l = 2  e_4 = 16.4411371
l = 2  e_5 = 51.3629323
l = 2  e_6 = 179.012991
l = 3  e_0 = 0.757876534
l = 3  e_1 = 2.24744419
l = 3  e_2 = 5.70637739
l = 3  e_3 = 15.8399535
l = 3  e_4 = 65.3034031
l = 4  e_0 = 1.85339925
l = 4  e_1 = 5.34714357
l = 4  e_2 = 13.9524503
l = 0  occ = 2 + 0
l = 1  occ = 0 + 1.667
l = 2  occ = 0 + 0
l = 3  occ = 0 + 0
E1 = -138.86611905004463  E_coul = 39.80104286629679
cycle= 16 E= -99.0650761837478  delta_E= -1.42e-14  |g|=    0  |ddm|= 8.87e-10
    CPU time for cycle= 16      0.17 sec, wall time      0.04 sec
diis-norm(errvec)=1.20506e-09
Linear dependence found in DIIS error vectors.
diis-c [-2.89052492e-16  1.25000000e-01  1.25000000e-01  1.25000000e-01
  1.25000000e-01  1.25000000e-01  1.25000000e-01  1.25000000e-01
  1.25000000e-01]
l = 0  e_0 = -26.4654267
l = 0  e_1 = -1.60996482
l = 0  e_2 = 0.0451406326
l = 0  e_3 = 0.273581658
l = 0  e_4 = 1.20970114
l = 0  e_5 = 4.74224713
l = 0  e_6 = 18.2486505
l = 0  e_7 = 63.6500316
l = 0  e_8 = 206.730662
l = 0  e_9 = 840.868237
l = 1  e_0 = -0.622650054
l = 1  e_1 = 0.0468958393
l = 1  e_2 = 0.222522695
l = 1  e_3 = 0.903225284
l = 1  e_4 = 3.32858578
l = 1  e_5 = 11.2499395
l = 1  e_6 = 35.6441247
l = 1  e_7 = 113.583477
l = 1  e_8 = 367.901256
l = 2  e_0 = 0.23342858
l = 2  e_1 = 0.782842018
l = 2  e_2 = 2.11315447
l = 2  e_3 = 5.70094312
l = 2  e_4 = 16.4411371
l = 2  e_5 = 51.3629323
l = 2  e_6 = 179.012991
l = 3  e_0 = 0.757876534
l = 3  e_1 = 2.24744419
l = 3  e_2 = 5.70637739
l = 3  e_3 = 15.8399535
l = 3  e_4 = 65.3034031
l = 4  e_0 = 1.85339925
l = 4  e_1 = 5.34714357
l = 4  e_2 = 13.9524503
l = 0  occ = 2 + 0
l = 1  occ = 0 + 1.667
l = 2  occ = 0 + 0
l = 3  occ = 0 + 0
E1 = -138.8661190522344  E_coul = 39.80104286848649
cycle= 17 E= -99.0650761837479  delta_E= -8.53e-14  |g|=    0  |ddm|= 4.43e-10
    CPU time for cycle= 17      0.18 sec, wall time      0.05 sec
diis-norm(errvec)=6.38517e-10
Linear dependence found in DIIS error vectors.
diis-c [-2.89052492e-16  1.25000000e-01  1.25000000e-01  1.25000000e-01
  1.25000000e-01  1.25000000e-01  1.25000000e-01  1.25000000e-01
  1.25000000e-01]
l = 0  e_0 = -26.4654267
l = 0  e_1 = -1.60996482
l = 0  e_2 = 0.0451406326
l = 0  e_3 = 0.273581658
l = 0  e_4 = 1.20970114
l = 0  e_5 = 4.74224713
l = 0  e_6 = 18.2486505
l = 0  e_7 = 63.6500316
l = 0  e_8 = 206.730662
l = 0  e_9 = 840.868237
l = 1  e_0 = -0.622650054
l = 1  e_1 = 0.0468958393
l = 1  e_2 = 0.222522695
l = 1  e_3 = 0.903225284
l = 1  e_4 = 3.32858578
l = 1  e_5 = 11.2499395
l = 1  e_6 = 35.6441247
l = 1  e_7 = 113.583477
l = 1  e_8 = 367.901256
l = 2  e_0 = 0.23342858
l = 2  e_1 = 0.782842018
l = 2  e_2 = 2.11315447
l = 2  e_3 = 5.70094312
l = 2  e_4 = 16.4411371
l = 2  e_5 = 51.3629323
l = 2  e_6 = 179.012991
l = 3  e_0 = 0.757876534
l = 3  e_1 = 2.24744419
l = 3  e_2 = 5.70637739
l = 3  e_3 = 15.8399535
l = 3  e_4 = 65.3034031
l = 4  e_0 = 1.85339925
l = 4  e_1 = 5.34714357
l = 4  e_2 = 13.9524503
l = 0  occ = 2 + 0
l = 1  occ = 0 + 1.667
l = 2  occ = 0 + 0
l = 3  occ = 0 + 0
E1 = -138.86611905364038  E_coul = 39.80104286989219
cycle= 18 E= -99.0650761837482  delta_E= -2.56e-13  |g|=    0  |ddm|= 2.88e-10
    CPU time for cycle= 18      0.17 sec, wall time      0.04 sec
diis-norm(errvec)=9.34027e-10
Linear dependence found in DIIS error vectors.
diis-c [-2.89052492e-16  1.25000000e-01  1.25000000e-01  1.25000000e-01
  1.25000000e-01  1.25000000e-01  1.25000000e-01  1.25000000e-01
  1.25000000e-01]
l = 0  e_0 = -26.4654267
l = 0  e_1 = -1.60996482
l = 0  e_2 = 0.0451406326
l = 0  e_3 = 0.273581658
l = 0  e_4 = 1.20970114
l = 0  e_5 = 4.74224713
l = 0  e_6 = 18.2486505
l = 0  e_7 = 63.6500316
l = 0  e_8 = 206.730662
l = 0  e_9 = 840.868237
l = 1  e_0 = -0.622650054
l = 1  e_1 = 0.0468958393
l = 1  e_2 = 0.222522695
l = 1  e_3 = 0.903225284
l = 1  e_4 = 3.32858578
l = 1  e_5 = 11.2499395
l = 1  e_6 = 35.6441247
l = 1  e_7 = 113.583477
l = 1  e_8 = 367.901256
l = 2  e_0 = 0.23342858
l = 2  e_1 = 0.782842018
l = 2  e_2 = 2.11315447
l = 2  e_3 = 5.70094312
l = 2  e_4 = 16.4411371
l = 2  e_5 = 51.3629323
l = 2  e_6 = 179.012991
l = 3  e_0 = 0.757876534
l = 3  e_1 = 2.24744419
l = 3  e_2 = 5.70637739
l = 3  e_3 = 15.8399535
l = 3  e_4 = 65.3034031
l = 4  e_0 = 1.85339925
l = 4  e_1 = 5.34714357
l = 4  e_2 = 13.9524503
l = 0  occ = 2 + 0
l = 1  occ = 0 + 1.667
l = 2  occ = 0 + 0
l = 3  occ = 0 + 0
E1 = -138.86611905454478  E_coul = 39.801042870796934
cycle= 19 E= -99.0650761837478  delta_E= 3.27e-13  |g|=    0  |ddm|= 2.14e-10
    CPU time for cycle= 19      0.17 sec, wall time      0.04 sec
diis-norm(errvec)=1.24005e-09
Linear dependence found in DIIS error vectors.
diis-c [-2.89052492e-16  1.25000000e-01  1.25000000e-01  1.25000000e-01
  1.25000000e-01  1.25000000e-01  1.25000000e-01  1.25000000e-01
  1.25000000e-01]
l = 0  e_0 = -26.4654267
l = 0  e_1 = -1.60996482
l = 0  e_2 = 0.0451406326
l = 0  e_3 = 0.273581658
l = 0  e_4 = 1.20970114
l = 0  e_5 = 4.74224713
l = 0  e_6 = 18.2486505
l = 0  e_7 = 63.6500316
l = 0  e_8 = 206.730662
l = 0  e_9 = 840.868237
l = 1  e_0 = -0.622650054
l = 1  e_1 = 0.0468958393
l = 1  e_2 = 0.222522695
l = 1  e_3 = 0.903225284
l = 1  e_4 = 3.32858578
l = 1  e_5 = 11.2499395
l = 1  e_6 = 35.6441247
l = 1  e_7 = 113.583477
l = 1  e_8 = 367.901256
l = 2  e_0 = 0.23342858
l = 2  e_1 = 0.782842018
l = 2  e_2 = 2.11315447
l = 2  e_3 = 5.70094312
l = 2  e_4 = 16.4411371
l = 2  e_5 = 51.3629323
l = 2  e_6 = 179.012991
l = 3  e_0 = 0.757876534
l = 3  e_1 = 2.24744419
l = 3  e_2 = 5.70637739
l = 3  e_3 = 15.8399535
l = 3  e_4 = 65.3034031
l = 4  e_0 = 1.85339925
l = 4  e_1 = 5.34714357
l = 4  e_2 = 13.9524503
l = 0  occ = 2 + 0
l = 1  occ = 0 + 1.667
l = 2  occ = 0 + 0
l = 3  occ = 0 + 0
E1 = -138.86611905424306  E_coul = 39.80104287049511
cycle= 20 E= -99.0650761837479  delta_E= -9.95e-14  |g|=    0  |ddm|= 5.28e-11
    CPU time for cycle= 20      0.17 sec, wall time      0.04 sec
l = 0  e_0 = -26.4654267
l = 0  e_1 = -1.60996482
l = 0  e_2 = 0.0451406326
l = 0  e_3 = 0.273581658
l = 0  e_4 = 1.20970114
l = 0  e_5 = 4.74224713
l = 0  e_6 = 18.2486505
l = 0  e_7 = 63.6500316
l = 0  e_8 = 206.730662
l = 0  e_9 = 840.868237
l = 1  e_0 = -0.622650054
l = 1  e_1 = 0.0468958393
l = 1  e_2 = 0.222522695
l = 1  e_3 = 0.903225284
l = 1  e_4 = 3.32858578
l = 1  e_5 = 11.2499395
l = 1  e_6 = 35.6441247
l = 1  e_7 = 113.583477
l = 1  e_8 = 367.901256
l = 2  e_0 = 0.23342858
l = 2  e_1 = 0.782842018
l = 2  e_2 = 2.11315447
l = 2  e_3 = 5.70094312
l = 2  e_4 = 16.4411371
l = 2  e_5 = 51.3629323
l = 2  e_6 = 179.012991
l = 3  e_0 = 0.757876534
l = 3  e_1 = 2.24744419
l = 3  e_2 = 5.70637739
l = 3  e_3 = 15.8399535
l = 3  e_4 = 65.3034031
l = 4  e_0 = 1.85339925
l = 4  e_1 = 5.34714357
l = 4  e_2 = 13.9524503
l = 0  occ = 2 + 0
l = 1  occ = 0 + 1.667
l = 2  occ = 0 + 0
l = 3  occ = 0 + 0
E1 = -138.86611905127745  E_coul = 39.80104286752953
Extra cycle  E= -99.0650761837479  delta_E= 2.84e-14  |g|=    0  |ddm|= 5.28e-11
    CPU time for scf_cycle      4.80 sec, wall time      1.30 sec
    CPU time for SCF      4.80 sec, wall time      1.30 sec
Atomic HF for atom  F  converged. SCF energy = -99.0650761837479

Atom F, E = -99.0650761837
Nelec from initial guess = (np.float64(4.499999999999998), np.float64(4.499999999999998))
E1 = -138.86611905127745  Ecoul = 39.80104286752953
init E= -99.0650761837479
    CPU time for initialize scf      6.21 sec, wall time      1.67 sec
alpha HOMO (B1u) = -0.62265005416497  LUMO (Ag) = 0.0451406326394236
alpha irrep_nelec = [2, 0, 0, 0, 0, 1, 1, 1]
beta  irrep_nelec = [2, 0, 0, 0, 0, 0, 0, 1]
alpha-Ag nocc = 2  HOMO = -1.60996482137517  LUMO = 0.0451406326394236
   mo_energy = [-2.64654267e+01 -1.60996482e+00  4.51406326e-02  2.33428580e-01
  2.33428580e-01  2.73581658e-01  7.82842018e-01  7.82842018e-01
  1.20970114e+00  1.85339925e+00  1.85339925e+00  1.85339925e+00
  2.11315447e+00  2.11315447e+00  4.74224713e+00  5.34714357e+00
  5.34714357e+00  5.34714357e+00  5.70094312e+00  5.70094312e+00
  1.39524503e+01  1.39524503e+01  1.39524503e+01  1.64411371e+01
  1.64411371e+01  1.82486505e+01  5.13629323e+01  5.13629323e+01
  6.36500316e+01  1.79012991e+02  1.79012991e+02  2.06730662e+02
  8.40868237e+02]
alpha-B1g nocc = 0
   mo_energy = [  0.23342858   0.78284202   1.85339925   1.85339925   2.11315447
   5.34714357   5.34714357   5.70094312  13.9524503   13.9524503
  16.44113706  51.36293226 179.01299061]
alpha-B2g nocc = 0
   mo_energy = [  0.23342858   0.78284202   1.85339925   1.85339925   2.11315447
   5.34714357   5.34714357   5.70094312  13.9524503   13.9524503
  16.44113706  51.36293226 179.01299061]
alpha-B3g nocc = 0
   mo_energy = [  0.23342858   0.78284202   1.85339925   1.85339925   2.11315447
   5.34714357   5.34714357   5.70094312  13.9524503   13.9524503
  16.44113706  51.36293226 179.01299061]
alpha-Au nocc = 0
   mo_energy = [ 0.75787653  2.24744419  5.70637739 15.8399535  65.30340313]
alpha-B1u nocc = 1  HOMO = -0.62265005416497  LUMO = 0.0468958393070019
   mo_energy = [-6.22650054e-01  4.68958393e-02  2.22522695e-01  7.57876534e-01
  7.57876534e-01  9.03225284e-01  2.24744419e+00  2.24744419e+00
  3.32858578e+00  5.70637739e+00  5.70637739e+00  1.12499395e+01
  1.58399535e+01  1.58399535e+01  3.56441247e+01  6.53034031e+01
  6.53034031e+01  1.13583477e+02  3.67901256e+02]
alpha-B2u nocc = 1  HOMO = -0.622650054164979  LUMO = 0.0468958393069923
   mo_energy = [-6.22650054e-01  4.68958393e-02  2.22522695e-01  7.57876534e-01
  7.57876534e-01  9.03225284e-01  2.24744419e+00  2.24744419e+00
  3.32858578e+00  5.70637739e+00  5.70637739e+00  1.12499395e+01
  1.58399535e+01  1.58399535e+01  3.56441247e+01  6.53034031e+01
  6.53034031e+01  1.13583477e+02  3.67901256e+02]
alpha-B3u nocc = 1  HOMO = -0.622650054164971  LUMO = 0.0468958393070182
   mo_energy = [-6.22650054e-01  4.68958393e-02  2.22522695e-01  7.57876534e-01
  7.57876534e-01  9.03225284e-01  2.24744419e+00  2.24744419e+00
  3.32858578e+00  5.70637739e+00  5.70637739e+00  1.12499395e+01
  1.58399535e+01  1.58399535e+01  3.56441247e+01  6.53034031e+01
  6.53034031e+01  1.13583477e+02  3.67901256e+02]
beta-Ag nocc = 2  HOMO = -1.60996482137517  LUMO = 0.0451406326394236
   mo_energy = [-2.64654267e+01 -1.60996482e+00  4.51406326e-02  2.33428580e-01
  2.33428580e-01  2.73581658e-01  7.82842018e-01  7.82842018e-01
  1.20970114e+00  1.85339925e+00  1.85339925e+00  1.85339925e+00
  2.11315447e+00  2.11315447e+00  4.74224713e+00  5.34714357e+00
  5.34714357e+00  5.34714357e+00  5.70094312e+00  5.70094312e+00
  1.39524503e+01  1.39524503e+01  1.39524503e+01  1.64411371e+01
  1.64411371e+01  1.82486505e+01  5.13629323e+01  5.13629323e+01
  6.36500316e+01  1.79012991e+02  1.79012991e+02  2.06730662e+02
  8.40868237e+02]
beta-B1g nocc = 0
   mo_energy = [  0.23342858   0.78284202   1.85339925   1.85339925   2.11315447
   5.34714357   5.34714357   5.70094312  13.9524503   13.9524503
  16.44113706  51.36293226 179.01299061]
beta-B2g nocc = 0
   mo_energy = [  0.23342858   0.78284202   1.85339925   1.85339925   2.11315447
   5.34714357   5.34714357   5.70094312  13.9524503   13.9524503
  16.44113706  51.36293226 179.01299061]
beta-B3g nocc = 0
   mo_energy = [  0.23342858   0.78284202   1.85339925   1.85339925   2.11315447
   5.34714357   5.34714357   5.70094312  13.9524503   13.9524503
  16.44113706  51.36293226 179.01299061]
beta-Au nocc = 0
   mo_energy = [ 0.75787653  2.24744419  5.70637739 15.8399535  65.30340313]
beta-B1u nocc = 0
   mo_energy = [-6.22650054e-01  4.68958393e-02  2.22522695e-01  7.57876534e-01
  7.57876534e-01  9.03225284e-01  2.24744419e+00  2.24744419e+00
  3.32858578e+00  5.70637739e+00  5.70637739e+00  1.12499395e+01
  1.58399535e+01  1.58399535e+01  3.56441247e+01  6.53034031e+01
  6.53034031e+01  1.13583477e+02  3.67901256e+02]
beta-B2u nocc = 0
   mo_energy = [-6.22650054e-01  4.68958393e-02  2.22522695e-01  7.57876534e-01
  7.57876534e-01  9.03225284e-01  2.24744419e+00  2.24744419e+00
  3.32858578e+00  5.70637739e+00  5.70637739e+00  1.12499395e+01
  1.58399535e+01  1.58399535e+01  3.56441247e+01  6.53034031e+01
  6.53034031e+01  1.13583477e+02  3.67901256e+02]
beta-B3u nocc = 1  HOMO = -0.622650054164971  LUMO = 0.0468958393070182
   mo_energy = [-6.22650054e-01  4.68958393e-02  2.22522695e-01  7.57876534e-01
  7.57876534e-01  9.03225284e-01  2.24744419e+00  2.24744419e+00
  3.32858578e+00  5.70637739e+00  5.70637739e+00  1.12499395e+01
  1.58399535e+01  1.58399535e+01  3.56441247e+01  6.53034031e+01
  6.53034031e+01  1.13583477e+02  3.67901256e+02]
multiplicity <S^2> = 2  2S+1 = 3
E1 = -130.84996823534672  Ecoul = 32.15979116797557
cycle= 1 E= -98.6901770673712  delta_E= 0.375  |g|= 0.636  |ddm|= 0.802
    CPU time for cycle= 1      0.36 sec, wall time      0.09 sec
diis-norm(errvec)=0.899437
diis-c [-0.80898661  1.        ]
alpha HOMO (B3u) = -1.60476299999817  LUMO (Ag) = -0.179458386872796
alpha irrep_nelec = [2, 0, 0, 0, 0, 1, 1, 1]
beta  irrep_nelec = [2, 0, 0, 0, 0, 0, 0, 1]
alpha-Ag nocc = 2  HOMO = -2.58750744897863  LUMO = -0.179458386872796
   mo_energy = [-2.77223684e+01 -2.58750745e+00 -1.79458387e-01 -5.23839096e-03
  1.21250827e-02  1.83552014e-02  3.96958957e-01  4.18567842e-01
  7.17537944e-01  1.47661372e+00  1.48966497e+00  1.49227516e+00
  1.49602571e+00  1.54270055e+00  3.95568899e+00  4.73873088e+00
  4.78001257e+00  4.79394464e+00  4.82268206e+00  4.90798941e+00
  1.30564948e+01  1.31321164e+01  1.31575200e+01  1.53517075e+01
  1.54507314e+01  1.72038713e+01  5.01509115e+01  5.02319316e+01
  6.24746488e+01  1.77759845e+02  1.77803756e+02  2.05503098e+02
  8.39624045e+02]
alpha-B1g nocc = 0
   mo_energy = [1.64984489e-02 4.13231796e-01 1.48509796e+00 1.49478555e+00
 1.52942197e+00 4.76274868e+00 4.79045504e+00 4.88610542e+00
 1.31005028e+01 1.31511595e+01 1.54261538e+01 5.02117151e+01
 1.77792790e+02]
alpha-B2g nocc = 0
   mo_energy = [1.64984489e-02 4.13231796e-01 1.48509796e+00 1.49478555e+00
 1.52942197e+00 4.76274868e+00 4.79045504e+00 4.88610542e+00
 1.31005028e+01 1.31511595e+01 1.54261538e+01 5.02117151e+01
 1.77792790e+02]
alpha-B3g nocc = 0
   mo_energy = [1.21250827e-02 3.96958957e-01 1.47661372e+00 1.48966497e+00
 1.49227516e+00 4.73873088e+00 4.78001257e+00 4.82268206e+00
 1.30564948e+01 1.31321164e+01 1.53517075e+01 5.01509115e+01
 1.77759845e+02]
alpha-Au nocc = 0
   mo_energy = [ 0.46874412  1.78585021  5.01334723 14.87314653 64.11656758]
alpha-B1u nocc = 1  HOMO = -1.70061015644591  LUMO = -0.111733947464008
   mo_energy = [-1.70061016e+00 -1.11733947e-01 -1.28616422e-02  4.38352966e-01
  4.62923132e-01  4.72688799e-01  1.76711931e+00  1.79710032e+00
  2.54737824e+00  4.97302088e+00  5.03783650e+00  1.02208467e+01
  1.48126748e+01  1.49096965e+01  3.44748812e+01  6.40662760e+01
  6.41467711e+01  1.12351069e+02  3.66651465e+02]
alpha-B2u nocc = 1  HOMO = -1.70061015644594  LUMO = -0.111733947464033
   mo_energy = [-1.70061016e+00 -1.11733947e-01 -1.28616422e-02  4.38352966e-01
  4.62923132e-01  4.72688799e-01  1.76711931e+00  1.79710032e+00
  2.54737824e+00  4.97302088e+00  5.03783650e+00  1.02208467e+01
  1.48126748e+01  1.49096965e+01  3.44748812e+01  6.40662760e+01
  6.41467711e+01  1.12351069e+02  3.66651465e+02]
alpha-B3u nocc = 1  HOMO = -1.60476299999817  LUMO = -0.106351155218091
   mo_energy = [-1.60476300e+00 -1.06351155e-01 -5.93640034e-03  4.64499274e-01
  4.68744120e-01  4.75931737e-01  1.78585021e+00  1.80086473e+00
  2.61399591e+00  5.01334723e+00  5.04605542e+00  1.03104577e+01
  1.48731465e+01  1.49219284e+01  3.45567064e+01  6.41165676e+01
  6.41568438e+01  1.12404514e+02  3.66677228e+02]
beta-Ag nocc = 2  HOMO = -2.22889171010134  LUMO = -0.167742089982942
   mo_energy = [-2.76417613e+01 -2.22889171e+00 -1.67742090e-01  7.67573002e-03
  1.72427991e-02  2.01364349e-02  4.36044217e-01  4.36887247e-01
  7.61807506e-01  1.48338459e+00  1.49540702e+00  1.49944321e+00
  1.59480877e+00  1.60990152e+00  4.03530298e+00  4.77180863e+00
  4.80062895e+00  4.81018216e+00  4.98277534e+00  4.99177270e+00
  1.31269334e+01  1.31762156e+01  1.31926818e+01  1.54887964e+01
  1.55134675e+01  1.72728081e+01  5.02213765e+01  5.02650618e+01
  6.25082380e+01  1.77782302e+02  1.77814557e+02  2.05514642e+02
  8.39626976e+02]
beta-B1g nocc = 0
   mo_energy = [1.93328184e-02 4.36069873e-01 1.49038105e+00 1.49843298e+00
 1.59800855e+00 4.78863101e+00 4.80779903e+00 4.98455549e+00
 1.31556592e+01 1.31885636e+01 1.55072232e+01 5.02541514e+01
 1.77806500e+02]
beta-B2g nocc = 0
   mo_energy = [1.93328184e-02 4.36069873e-01 1.49038105e+00 1.49843298e+00
 1.59800855e+00 4.78863101e+00 4.80779903e+00 4.98455549e+00
 1.31556592e+01 1.31885636e+01 1.55072232e+01 5.02541514e+01
 1.77806500e+02]
beta-B3g nocc = 0
   mo_energy = [1.72427991e-02 4.36887247e-01 1.48338459e+00 1.49540702e+00
 1.60990152e+00 4.77180863e+00 4.80062895e+00 4.99177270e+00
 1.31269334e+01 1.31762156e+01 1.54887964e+01 5.02213765e+01
 1.77782302e+02]
beta-Au nocc = 0
   mo_energy = [ 0.47186488  1.80695429  5.07003785 14.95424138 64.16555901]
beta-B1u nocc = 0
   mo_energy = [-7.13995227e-01 -1.02974969e-01  2.00920801e-03  4.67341189e-01
  4.74447732e-01  5.09525071e-01  1.79674219e+00  1.81310554e+00
  2.68326319e+00  5.05222086e+00  5.08078141e+00  1.03412963e+01
  1.49258213e+01  1.49713460e+01  3.45430340e+01  6.41345655e+01
  6.41841626e+01  1.12378559e+02  3.66659450e+02]
beta-B2u nocc = 0
   mo_energy = [-7.13995227e-01 -1.02974969e-01  2.00920801e-03  4.67341189e-01
  4.74447732e-01  5.09525071e-01  1.79674219e+00  1.81310554e+00
  2.68326319e+00  5.05222086e+00  5.08078141e+00  1.03412963e+01
  1.49258213e+01  1.49713460e+01  3.45430340e+01  6.41345655e+01
  6.41841626e+01  1.12378559e+02  3.66659450e+02]
beta-B3u nocc = 1  HOMO = -1.50910865534312  LUMO = -0.104789443170842
   mo_energy = [-1.50910866e+00 -1.04789443e-01 -3.10702304e-03  4.71864883e-01
  4.74562751e-01  4.82684662e-01  1.80695429e+00  1.81516044e+00
  2.64807722e+00  5.07003785e+00  5.08437094e+00  1.03467624e+01
  1.49542414e+01  1.49770567e+01  3.45803815e+01  6.41655590e+01
  6.41903651e+01  1.12414945e+02  3.66680457e+02]
multiplicity <S^2> = 2.0016133  2S+1 = 3.0010753
E1 = -133.5921975050305  Ecoul = 34.76158711252112
cycle= 2 E= -98.8306103925094  delta_E= -0.14  |g|= 0.216  |ddm|= 0.328
    CPU time for cycle= 2      0.37 sec, wall time      0.09 sec
diis-norm(errvec)=0.305686
diis-c [-0.04492925  0.20126774  0.79873226]
alpha HOMO (B3u) = -1.42799862417247  LUMO (Ag) = -0.168067829191193
alpha irrep_nelec = [2, 0, 0, 0, 0, 1, 1, 1]
beta  irrep_nelec = [2, 0, 0, 0, 0, 0, 0, 1]
alpha-Ag nocc = 2  HOMO = -2.41061077060005  LUMO = -0.168067829191193
   mo_energy = [-2.72137876e+01 -2.41061077e+00 -1.68067829e-01  7.12454245e-03
  1.60661013e-02  2.10387955e-02  4.22845152e-01  4.41442641e-01
  7.67881742e-01  1.48668683e+00  1.49894371e+00  1.50306431e+00
  1.56326542e+00  1.61546454e+00  4.11054636e+00  4.79410403e+00
  4.83283172e+00  4.84589018e+00  4.97850400e+00  5.07120904e+00
  1.32271139e+01  1.33054877e+01  1.33318474e+01  1.56489797e+01
  1.57585179e+01  1.75315108e+01  5.05858910e+01  5.06772877e+01
  6.29337391e+01  1.78281102e+02  1.78331430e+02  2.06033025e+02
  8.40190752e+02]
alpha-B1g nocc = 0
   mo_energy = [1.94709838e-02 4.36796352e-01 1.49383846e+00 1.50203215e+00
 1.60198743e+00 4.81661557e+00 4.84261823e+00 5.04723491e+00
 1.32727064e+01 1.33252460e+01 1.57313912e+01 5.06544893e+01
 1.78318863e+02]
alpha-B2g nocc = 0
   mo_energy = [1.94709838e-02 4.36796352e-01 1.49383846e+00 1.50203215e+00
 1.60198743e+00 4.81661557e+00 4.84261823e+00 5.04723491e+00
 1.32727064e+01 1.33252460e+01 1.57313912e+01 5.06544893e+01
 1.78318863e+02]
alpha-B3g nocc = 0
   mo_energy = [1.60661013e-02 4.22845152e-01 1.48668683e+00 1.49894371e+00
 1.56326542e+00 4.79410403e+00 4.83283172e+00 4.97850400e+00
 1.32271139e+01 1.33054877e+01 1.56489797e+01 5.05858910e+01
 1.78281102e+02]
alpha-Au nocc = 0
   mo_energy = [ 0.47266124  1.81491404  5.11419973 15.12516833 64.56924505]
alpha-B1u nocc = 1  HOMO = -1.53942230697404  LUMO = -0.107248567660569
   mo_energy = [-1.53942231e+00 -1.07248568e-01 -5.83502830e-03  4.67900084e-01
  4.73107009e-01  4.79894446e-01  1.79815033e+00  1.82499987e+00
  2.68256707e+00  5.07374021e+00  5.13878777e+00  1.05022401e+01
  1.50596461e+01  1.51647970e+01  3.48875241e+01  6.45122349e+01
  6.46034890e+01  1.12853114e+02  3.67201482e+02]
alpha-B2u nocc = 1  HOMO = -1.53942230697402  LUMO = -0.107248567660576
   mo_energy = [-1.53942231e+00 -1.07248568e-01 -5.83502830e-03  4.67900084e-01
  4.73107009e-01  4.79894446e-01  1.79815033e+00  1.82499987e+00
  2.68256707e+00  5.07374021e+00  5.13878777e+00  1.05022401e+01
  1.50596461e+01  1.51647970e+01  3.48875241e+01  6.45122349e+01
  6.46034890e+01  1.12853114e+02  3.67201482e+02]
alpha-B3u nocc = 1  HOMO = -1.42799862417247  LUMO = -0.103155097402018
   mo_energy = [-1.42799862e+00 -1.03155097e-01  3.98193337e-04  4.72661241e-01
  4.75961593e-01  5.06266211e-01  1.81491404e+00  1.82837763e+00
  2.75436488e+00  5.11419973e+00  5.14704334e+00  1.06008423e+01
  1.51251683e+01  1.51780641e+01  3.49791053e+01  6.45692451e+01
  6.46149101e+01  1.12913866e+02  3.67231034e+02]
beta-Ag nocc = 2  HOMO = -2.0250787120222  LUMO = -0.160677616669651
   mo_energy = [-2.71153850e+01 -2.02507871e+00 -1.60677617e-01  1.74739418e-02
  1.88339917e-02  2.22694491e-02  4.50977779e-01  4.52535429e-01
  8.13072922e-01  1.49063577e+00  1.50126093e+00  1.50482582e+00
  1.66283168e+00  1.67877178e+00  4.20320914e+00  4.82292544e+00
  4.84983165e+00  4.85878794e+00  5.15514588e+00  5.17525006e+00
  1.33048205e+01  1.33526791e+01  1.33686725e+01  1.58163927e+01
  1.58339072e+01  1.76146053e+01  5.06728392e+01  5.07178415e+01
  6.29745386e+01  1.78308847e+02  1.78344645e+02  2.06046821e+02
  8.40193995e+02]
beta-B1g nocc = 0
   mo_energy = [2.09031254e-02 4.51963199e-01 1.49682103e+00 1.50393353e+00
 1.66603623e+00 4.83861759e+00 4.85655078e+00 5.15937799e+00
 1.33327148e+01 1.33646724e+01 1.58293956e+01 5.07065990e+01
 1.78335703e+02]
beta-B2g nocc = 0
   mo_energy = [2.09031254e-02 4.51963199e-01 1.49682103e+00 1.50393353e+00
 1.66603623e+00 4.83861759e+00 4.85655078e+00 5.15937799e+00
 1.33327148e+01 1.33646724e+01 1.58293956e+01 5.07065990e+01
 1.78335703e+02]
beta-B3g nocc = 0
   mo_energy = [1.88339917e-02 4.50977779e-01 1.49063577e+00 1.50126093e+00
 1.67877178e+00 4.82292544e+00 4.84983165e+00 5.17525006e+00
 1.33048205e+01 1.33526791e+01 1.58163927e+01 5.06728392e+01
 1.78308847e+02]
beta-Au nocc = 0
   mo_energy = [ 0.47423293  1.83044073  5.17048705 15.21976594 64.62959858]
beta-B1u nocc = 0
   mo_energy = [-5.14711994e-01 -9.74575879e-02  1.40972887e-02  4.70229975e-01
  4.76579089e-01  5.70696396e-01  1.82078741e+00  1.83624318e+00
  2.85292270e+00  5.15432373e+00  5.18022574e+00  1.06496756e+01
  1.51931016e+01  1.52358159e+01  3.49712372e+01  6.45965377e+01
  6.46494468e+01  1.12886841e+02  3.67211026e+02]
beta-B2u nocc = 0
   mo_energy = [-5.14711994e-01 -9.74575879e-02  1.40972887e-02  4.70229975e-01
  4.76579089e-01  5.70696396e-01  1.82078741e+00  1.83624318e+00
  2.85292270e+00  5.15432373e+00  5.18022574e+00  1.06496756e+01
  1.51931016e+01  1.52358159e+01  3.49712372e+01  6.45965377e+01
  6.46494468e+01  1.12886841e+02  3.67211026e+02]
beta-B3u nocc = 1  HOMO = -1.33151103601583  LUMO = -0.102084454927181
   mo_energy = [-1.33151104e+00 -1.02084455e-01  2.69576925e-03  4.74232928e-01
  4.77261010e-01  5.19827033e-01  1.83044073e+00  1.83817924e+00
  2.79059951e+00  5.17048705e+00  5.18347637e+00  1.06420626e+01
  1.52197659e+01  1.52411748e+01  3.50072208e+01  6.46295986e+01
  6.46560649e+01  1.12926311e+02  3.67234648e+02]
multiplicity <S^2> = 2.0032571  2S+1 = 3.0021706
E1 = -133.19837894681905  Ecoul = 34.360013554725754
cycle= 3 E= -98.8383653920933  delta_E= -0.00775  |g|= 0.0337  |ddm|= 0.105
    CPU time for cycle= 3      0.37 sec, wall time      0.09 sec
diis-norm(errvec)=0.04763
diis-c [-1.06346185e-03 -3.49114329e-02 -1.61937391e-01  1.19684882e+00]
alpha HOMO (B3u) = -1.41282416934307  LUMO (Ag) = -0.165914482027554
alpha irrep_nelec = [2, 0, 0, 0, 0, 1, 1, 1]
beta  irrep_nelec = [2, 0, 0, 0, 0, 0, 0, 1]
alpha-Ag nocc = 2  HOMO = -2.3980846469434  LUMO = -0.165914482027554
   mo_energy = [-2.71908033e+01 -2.39808465e+00 -1.65914482e-01  9.50027617e-03
  1.69606335e-02  2.18257001e-02  4.28159958e-01  4.46574198e-01
  7.75212284e-01  1.48901829e+00  1.50123150e+00  1.50533939e+00
  1.57274475e+00  1.62641273e+00  4.12657330e+00  4.80425283e+00
  4.84341413e+00  4.85664644e+00  4.99329066e+00  5.08864589e+00
  1.32480579e+01  1.33270121e+01  1.33536183e+01  1.56731113e+01
  1.57830997e+01  1.75559334e+01  5.06133103e+01  5.07033925e+01
  6.29588638e+01  1.78304847e+02  1.78353863e+02  2.06053689e+02
  8.40204223e+02]
alpha-B1g nocc = 0
   mo_energy = [2.02653332e-02 4.41937307e-01 1.49614269e+00 1.50431016e+00
 1.61246275e+00 4.82700199e+00 4.85332956e+00 5.06388505e+00
 1.32939607e+01 1.33469527e+01 1.57558172e+01 5.06808947e+01
 1.78341615e+02]
alpha-B2g nocc = 0
   mo_energy = [2.02653332e-02 4.41937307e-01 1.49614269e+00 1.50431016e+00
 1.61246275e+00 4.82700199e+00 4.85332956e+00 5.06388505e+00
 1.32939607e+01 1.33469527e+01 1.57558172e+01 5.06808947e+01
 1.78341615e+02]
alpha-B3g nocc = 0
   mo_energy = [1.69606335e-02 4.28159958e-01 1.48901829e+00 1.50123150e+00
 1.57274475e+00 4.80425283e+00 4.84341413e+00 4.99329066e+00
 1.32480579e+01 1.33270121e+01 1.56731113e+01 5.06133103e+01
 1.78304847e+02]
alpha-Au nocc = 0
   mo_energy = [ 0.47378168  1.8213052   5.12889383 15.14903935 64.59687009]
alpha-B1u nocc = 1  HOMO = -1.53348020032213  LUMO = -0.106598787000972
   mo_energy = [-1.53348020e+00 -1.06598787e-01 -4.77103068e-03  4.69079890e-01
  4.75181387e-01  4.83835098e-01  1.80447004e+00  1.83145745e+00
  2.69564335e+00  5.08775153e+00  5.15395381e+00  1.05239063e+01
  1.50832015e+01  1.51889187e+01  3.49133413e+01  6.45409004e+01
  6.46305143e+01  1.12877292e+02  3.67219862e+02]
alpha-B2u nocc = 1  HOMO = -1.53348020032219  LUMO = -0.106598787000968
   mo_energy = [-1.53348020e+00 -1.06598787e-01 -4.77103068e-03  4.69079890e-01
  4.75181387e-01  4.83835098e-01  1.80447004e+00  1.83145745e+00
  2.69564335e+00  5.08775153e+00  5.15395381e+00  1.05239063e+01
  1.50832015e+01  1.51889187e+01  3.49133413e+01  6.45409004e+01
  6.46305143e+01  1.12877292e+02  3.67219862e+02]
alpha-B3u nocc = 1  HOMO = -1.41282416934307  LUMO = -0.102598761056611
   mo_energy = [-1.41282417e+00 -1.02598761e-01  1.50567677e-03  4.73781678e-01
  4.77121493e-01  5.12029266e-01  1.82130520e+00  1.83486261e+00
  2.76991510e+00  5.12889383e+00  5.16237891e+00  1.06237111e+01
  1.51490393e+01  1.52022806e+01  3.50042224e+01  6.45968701e+01
  6.46417396e+01  1.12936740e+02  3.67248532e+02]
beta-Ag nocc = 2  HOMO = -1.99616068409623  LUMO = -0.159407862448757
   mo_energy = [-2.70887746e+01 -1.99616068e+00 -1.59407862e-01  1.89485825e-02
  1.90711740e-02  2.31033290e-02  4.53284619e-01  4.55120431e-01
  8.21954778e-01  1.49204235e+00  1.50277761e+00  1.50637957e+00
  1.67161104e+00  1.68947808e+00  4.22517450e+00  4.83245265e+00
  4.85915256e+00  4.86802693e+00  5.17609966e+00  5.19920465e+00
  1.33292275e+01  1.33756669e+01  1.33911803e+01  1.58469962e+01
  1.58625568e+01  1.76439942e+01  5.07027465e+01  5.07458587e+01
  6.30019122e+01  1.78333386e+02  1.78367783e+02  2.06068446e+02
  8.40207949e+02]
beta-B1g nocc = 0
   mo_energy = [2.12280898e-02 4.54462606e-01 1.49829158e+00 1.50547800e+00
 1.67525202e+00 4.84802963e+00 4.86581119e+00 5.18111641e+00
 1.33562973e+01 1.33873006e+01 1.58585701e+01 5.07350815e+01
 1.78359185e+02]
beta-B2g nocc = 0
   mo_energy = [2.12280898e-02 4.54462606e-01 1.49829158e+00 1.50547800e+00
 1.67525202e+00 4.84802963e+00 4.86581119e+00 5.18111641e+00
 1.33562973e+01 1.33873006e+01 1.58585701e+01 5.07350815e+01
 1.78359185e+02]
beta-B3g nocc = 0
   mo_energy = [1.90711740e-02 4.53284619e-01 1.49204235e+00 1.50277761e+00
 1.68947808e+00 4.83245265e+00 4.85915256e+00 5.19920465e+00
 1.33292275e+01 1.33756669e+01 1.58469962e+01 5.07027465e+01
 1.78333386e+02]
beta-Au nocc = 0
   mo_energy = [ 0.47478115  1.8349571   5.18581287 15.24823643 64.65944339]
beta-B1u nocc = 0
   mo_energy = [-4.92903432e-01 -9.67045384e-02  1.58794724e-02  4.70718559e-01
  4.77161716e-01  5.78803270e-01  1.82531230e+00  1.84074453e+00
  2.87113792e+00  5.17052523e+00  5.19497795e+00  1.06763225e+01
  1.52230453e+01  1.52633665e+01  3.50002304e+01  6.46277298e+01
  6.46784887e+01  1.12912377e+02  3.67230027e+02]
beta-B2u nocc = 0
   mo_energy = [-4.92903432e-01 -9.67045384e-02  1.58794724e-02  4.70718559e-01
  4.77161716e-01  5.78803270e-01  1.82531230e+00  1.84074453e+00
  2.87113792e+00  5.17052523e+00  5.19497795e+00  1.06763225e+01
  1.52230453e+01  1.52633665e+01  3.50002304e+01  6.46277298e+01
  6.46784887e+01  1.12912377e+02  3.67230027e+02]
beta-B3u nocc = 1  HOMO = -1.31297706673677  LUMO = -0.101608208229076
   mo_energy = [-1.31297707e+00 -1.01608208e-01  3.72047699e-03  4.74781154e-01
  4.77862693e-01  5.25852911e-01  1.83495710e+00  1.84267369e+00
  2.80785569e+00  5.18581287e+00  5.19802944e+00  1.06675908e+01
  1.52482364e+01  1.52684129e+01  3.50345193e+01  6.46594434e+01
  6.46848399e+01  1.12950323e+02  3.67252729e+02]
multiplicity <S^2> = 2.004693  2S+1 = 3.003127
E1 = -133.19422912447573  Ecoul = 34.35534490314571
cycle= 4 E= -98.83888422133  delta_E= -0.000519  |g|= 0.00779  |ddm|= 0.0412
    CPU time for cycle= 4      0.36 sec, wall time      0.09 sec
diis-norm(errvec)=0.011011
diis-c [-5.18312873e-05  3.27498134e-03  3.70296852e-02 -3.41645417e-01
  1.30134075e+00]
alpha HOMO (B3u) = -1.41458686354975  LUMO (Ag) = -0.165967095830262
alpha irrep_nelec = [2, 0, 0, 0, 0, 1, 1, 1]
beta  irrep_nelec = [2, 0, 0, 0, 0, 0, 0, 1]
alpha-Ag nocc = 2  HOMO = -2.40048186910909  LUMO = -0.165967095830262
   mo_energy = [-2.71939175e+01 -2.40048187e+00 -1.65967096e-01  9.42583624e-03
  1.69466423e-02  2.18856402e-02  4.28240316e-01  4.46817429e-01
  7.74772231e-01  1.48887360e+00  1.50128277e+00  1.50546113e+00
  1.57231579e+00  1.62634262e+00  4.12493893e+00  4.80380050e+00
  4.84327828e+00  4.85663853e+00  4.99134936e+00  5.08693602e+00
  1.32466271e+01  1.33255427e+01  1.33521674e+01  1.56705952e+01
  1.57801843e+01  1.75533658e+01  5.06112716e+01  5.07006178e+01
  6.29564903e+01  1.78303260e+02  1.78351753e+02  2.06051782e+02
  8.40202732e+02]
alpha-B1g nocc = 0
   mo_energy = [2.03011325e-02 4.42126814e-01 1.49610972e+00 1.50441403e+00
 1.61227115e+00 4.82672233e+00 4.85328855e+00 5.06208867e+00
 1.32924906e+01 1.33454956e+01 1.57529721e+01 5.06782893e+01
 1.78339631e+02]
alpha-B2g nocc = 0
   mo_energy = [2.03011325e-02 4.42126814e-01 1.49610972e+00 1.50441403e+00
 1.61227115e+00 4.82672233e+00 4.85328855e+00 5.06208867e+00
 1.32924906e+01 1.33454956e+01 1.57529721e+01 5.06782893e+01
 1.78339631e+02]
alpha-B3g nocc = 0
   mo_energy = [1.69466423e-02 4.28240316e-01 1.48887360e+00 1.50128277e+00
 1.57231579e+00 4.80380050e+00 4.84327828e+00 4.99134936e+00
 1.32466271e+01 1.33255427e+01 1.56705952e+01 5.06112716e+01
 1.78303260e+02]
alpha-Au nocc = 0
   mo_energy = [ 0.47379199  1.82133679  5.12818901 15.14671049 64.59437769]
alpha-B1u nocc = 1  HOMO = -1.53650684223079  LUMO = -0.106709547036927
   mo_energy = [-1.53650684e+00 -1.06709547e-01 -4.94427080e-03  4.69009910e-01
  4.75069135e-01  4.83277676e-01  1.80432920e+00  1.83160847e+00
  2.69389777e+00  5.08689193e+00  5.15337681e+00  1.05215965e+01
  1.50811009e+01  1.51864853e+01  3.49111438e+01  6.45389358e+01
  6.46277177e+01  1.12875427e+02  3.67218292e+02]
alpha-B2u nocc = 1  HOMO = -1.53650684223081  LUMO = -0.106709547036926
   mo_energy = [-1.53650684e+00 -1.06709547e-01 -4.94427080e-03  4.69009910e-01
  4.75069135e-01  4.83277676e-01  1.80432920e+00  1.83160847e+00
  2.69389777e+00  5.08689193e+00  5.15337681e+00  1.05215965e+01
  1.50811009e+01  1.51864853e+01  3.49111438e+01  6.45389358e+01
  6.46277177e+01  1.12875427e+02  3.67218292e+02]
alpha-B3u nocc = 1  HOMO = -1.41458686354975  LUMO = -0.102623340416185
   mo_energy = [-1.41458686e+00 -1.02623340e-01  1.44356269e-03  4.73791994e-01
  4.77182616e-01  5.11695476e-01  1.82133679e+00  1.83505635e+00
  2.76862206e+00  5.12818901e+00  5.16185126e+00  1.06212802e+01
  1.51467105e+01  1.51998184e+01  3.50014119e+01  6.45943777e+01
  6.46388436e+01  1.12934294e+02  3.67246644e+02]
beta-Ag nocc = 2  HOMO = -1.99460957996575  LUMO = -0.159402368540509
   mo_energy = [-2.70892299e+01 -1.99460958e+00 -1.59402369e-01  1.89497569e-02
  1.90081127e-02  2.30987556e-02  4.52947613e-01  4.54699355e-01
  8.22069861e-01  1.49179707e+00  1.50269171e+00  1.50634811e+00
  1.67060581e+00  1.68874785e+00  4.22516816e+00  4.83174153e+00
  4.85858270e+00  4.86749743e+00  5.17558049e+00  5.19857066e+00
  1.33281718e+01  1.33744454e+01  1.33899006e+01  1.58460129e+01
  1.58614717e+01  1.76432268e+01  5.07014945e+01  5.07440913e+01
  6.30006948e+01  1.78332209e+02  1.78366168e+02  2.06067273e+02
  8.40206926e+02]
beta-B1g nocc = 0
   mo_energy = [2.11972704e-02 4.54076264e-01 1.49813847e+00 1.50543288e+00
 1.67439703e+00 4.84740332e+00 4.86527215e+00 5.18065850e+00
 1.33551462e+01 1.33860356e+01 1.58575286e+01 5.07334388e+01
 1.78357678e+02]
beta-B2g nocc = 0
   mo_energy = [2.11972704e-02 4.54076264e-01 1.49813847e+00 1.50543288e+00
 1.67439703e+00 4.84740332e+00 4.86527215e+00 5.18065850e+00
 1.33551462e+01 1.33860356e+01 1.58575286e+01 5.07334388e+01
 1.78357678e+02]
beta-B3g nocc = 0
   mo_energy = [1.90081127e-02 4.52947613e-01 1.49179707e+00 1.50269171e+00
 1.68874785e+00 4.83174153e+00 4.85858270e+00 5.19857066e+00
 1.33281718e+01 1.33744454e+01 1.58460129e+01 5.07014945e+01
 1.78332209e+02]
beta-Au nocc = 0
   mo_energy = [ 0.47472213  1.83453425  5.18494729 15.24705907 64.65782937]
beta-B1u nocc = 0
   mo_energy = [-4.93496148e-01 -9.67170505e-02  1.58577156e-02  4.70594319e-01
  4.77140866e-01  5.78643169e-01  1.82482040e+00  1.84035275e+00
  2.87044372e+00  5.16967188e+00  5.19407175e+00  1.06753431e+01
  1.52220428e+01  1.52620675e+01  3.49990863e+01  6.46265148e+01
  6.46766384e+01  1.12911229e+02  3.67228973e+02]
beta-B2u nocc = 0
   mo_energy = [-4.93496148e-01 -9.67170505e-02  1.58577156e-02  4.70594319e-01
  4.77140866e-01  5.78643169e-01  1.82482040e+00  1.84035275e+00
  2.87044372e+00  5.16967188e+00  5.19407175e+00  1.06753431e+01
  1.52220428e+01  1.52620675e+01  3.49990863e+01  6.46265148e+01
  6.46766384e+01  1.12911229e+02  3.67228973e+02]
beta-B3u nocc = 1  HOMO = -1.31157003234001  LUMO = -0.101573569876839
   mo_energy = [-1.31157003e+00 -1.01573570e-01  3.78033624e-03  4.74722131e-01
  4.77854381e-01  5.26102925e-01  1.83453425e+00  1.84229079e+00
  2.80790146e+00  5.18494729e+00  5.19710433e+00  1.06667776e+01
  1.52470591e+01  1.52670703e+01  3.50329892e+01  6.46578294e+01
  6.46829115e+01  1.12948704e+02  3.67251391e+02]
multiplicity <S^2> = 2.0051909  2S+1 = 3.0034586
E1 = -133.2000749981035  Ecoul = 34.36115524877392
cycle= 5 E= -98.8389197493296  delta_E= -3.55e-05  |g|= 0.00177  |ddm|= 0.00692
    CPU time for cycle= 5      0.37 sec, wall time      0.10 sec
diis-norm(errvec)=0.00249642
diis-c [-1.03008481e-06  2.87256846e-04 -6.65916958e-03  7.47137916e-02
 -4.77945780e-01  1.40960390e+00]
alpha HOMO (B3u) = -1.41530153177485  LUMO (Ag) = -0.165984344752945
alpha irrep_nelec = [2, 0, 0, 0, 0, 1, 1, 1]
beta  irrep_nelec = [2, 0, 0, 0, 0, 0, 0, 1]
alpha-Ag nocc = 2  HOMO = -2.4010096856334  LUMO = -0.165984344752945
   mo_energy = [-2.71942419e+01 -2.40100969e+00 -1.65984345e-01  9.40150239e-03
  1.69350460e-02  2.18996779e-02  4.28224783e-01  4.46857242e-01
  7.74675086e-01  1.48881871e+00  1.50128318e+00  1.50548102e+00
  1.57230254e+00  1.62635691e+00  4.12465326e+00  4.80367776e+00
  4.84322351e+00  4.85660869e+00  4.99111571e+00  5.08658198e+00
  1.32464747e+01  1.33253305e+01  1.33519355e+01  1.56703842e+01
  1.57797472e+01  1.75530696e+01  5.06112727e+01  5.07003736e+01
  6.29563335e+01  1.78303260e+02  1.78351596e+02  2.06051624e+02
  8.40202451e+02]
alpha-B1g nocc = 0
   mo_energy = [2.03056863e-02 4.42151919e-01 1.49608645e+00 1.50442900e+00
 1.61227595e+00 4.82663800e+00 4.85325237e+00 5.06176672e+00
 1.32923033e+01 1.33452686e+01 1.57525895e+01 5.06781066e+01
 1.78339514e+02]
alpha-B2g nocc = 0
   mo_energy = [2.03056863e-02 4.42151919e-01 1.49608645e+00 1.50442900e+00
 1.61227595e+00 4.82663800e+00 4.85325237e+00 5.06176672e+00
 1.32923033e+01 1.33452686e+01 1.57525895e+01 5.06781066e+01
 1.78339514e+02]
alpha-B3g nocc = 0
   mo_energy = [1.69350460e-02 4.28224783e-01 1.48881871e+00 1.50128318e+00
 1.57230254e+00 4.80367776e+00 4.84322351e+00 4.99111571e+00
 1.32464747e+01 1.33253305e+01 1.56703842e+01 5.06112727e+01
 1.78303260e+02]
alpha-Au nocc = 0
   mo_energy = [ 0.47378856  1.82132062  5.12808361 15.14643658 64.59428095]
alpha-B1u nocc = 1  HOMO = -1.53699942668717  LUMO = -0.106720998762935
   mo_energy = [-1.53699943e+00 -1.06720999e-01 -4.96355719e-03  4.68982795e-01
  4.75045259e-01  4.83206186e-01  1.80426619e+00  1.83162259e+00
  2.69365039e+00  5.08678064e+00  5.15327762e+00  1.05213702e+01
  1.50809386e+01  1.51861437e+01  3.49110406e+01  6.45389992e+01
  6.46275239e+01  1.12875375e+02  3.67218141e+02]
alpha-B2u nocc = 1  HOMO = -1.53699942668716  LUMO = -0.106720998762948
   mo_energy = [-1.53699943e+00 -1.06720999e-01 -4.96355719e-03  4.68982795e-01
  4.75045259e-01  4.83206186e-01  1.80426619e+00  1.83162259e+00
  2.69365039e+00  5.08678064e+00  5.15327762e+00  1.05213702e+01
  1.50809386e+01  1.51861437e+01  3.49110406e+01  6.45389992e+01
  6.46275239e+01  1.12875375e+02  3.67218141e+02]
alpha-B3u nocc = 1  HOMO = -1.41530153177485  LUMO = -0.102621389310404
   mo_energy = [-1.41530153e+00 -1.02621389e-01  1.43877699e-03  4.73788564e-01
  4.77193186e-01  5.11613291e-01  1.82132062e+00  1.83508096e+00
  2.76831756e+00  5.12808361e+00  5.16175466e+00  1.06208762e+01
  1.51464366e+01  1.51994541e+01  3.50010828e+01  6.45942809e+01
  6.46386174e+01  1.12934065e+02  3.67246400e+02]
beta-Ag nocc = 2  HOMO = -1.99428317573411  LUMO = -0.159411994052306
   mo_energy = [-2.70888937e+01 -1.99428318e+00 -1.59411994e-01  1.89470689e-02
  1.89910247e-02  2.30797909e-02  4.52858878e-01  4.54566143e-01
  8.22073208e-01  1.49172763e+00  1.50265799e+00  1.50632631e+00
  1.67042440e+00  1.68855832e+00  4.22526824e+00  4.83153261e+00
  4.85841472e+00  4.86734218e+00  5.17571643e+00  5.19850892e+00
  1.33280224e+01  1.33743062e+01  1.33897645e+01  1.58461363e+01
  1.58616988e+01  1.76434023e+01  5.07016717e+01  5.07442008e+01
  6.30008299e+01  1.78332296e+02  1.78366156e+02  2.06067285e+02
  8.40206748e+02]
beta-B1g nocc = 0
   mo_energy = [2.11842644e-02 4.53956409e-01 1.49808983e+00 1.50540811e+00
 1.67422105e+00 4.84721870e+00 4.86511377e+00 5.18074778e+00
 1.33550028e+01 1.33858987e+01 1.58577286e+01 5.07335653e+01
 1.78357691e+02]
beta-B2g nocc = 0
   mo_energy = [2.11842644e-02 4.53956409e-01 1.49808983e+00 1.50540811e+00
 1.67422105e+00 4.84721870e+00 4.86511377e+00 5.18074778e+00
 1.33550028e+01 1.33858987e+01 1.58577286e+01 5.07335653e+01
 1.78357691e+02]
beta-B3g nocc = 0
   mo_energy = [1.89910247e-02 4.52858878e-01 1.49172763e+00 1.50265799e+00
 1.68855832e+00 4.83153261e+00 4.85841472e+00 5.19850892e+00
 1.33280224e+01 1.33743062e+01 1.58461363e+01 5.07016717e+01
 1.78332296e+02]
beta-Au nocc = 0
   mo_energy = [ 0.47470226  1.83440682  5.18476514 15.24709382 64.65799401]
beta-B1u nocc = 0
   mo_energy = [-4.93580236e-01 -9.67185579e-02  1.58563251e-02  4.70560272e-01
  4.77129389e-01  5.78629433e-01  1.82468037e+00  1.84023099e+00
  2.87040651e+00  5.16946184e+00  5.19390518e+00  1.06753831e+01
  1.52220642e+01  1.52621115e+01  3.49992158e+01  6.46267489e+01
  6.46767613e+01  1.12911335e+02  3.67228933e+02]
beta-B2u nocc = 0
   mo_energy = [-4.93580236e-01 -9.67185579e-02  1.58563251e-02  4.70560272e-01
  4.77129389e-01  5.78629433e-01  1.82468037e+00  1.84023099e+00
  2.87040651e+00  5.16946184e+00  5.19390518e+00  1.06753831e+01
  1.52220642e+01  1.52621115e+01  3.49992158e+01  6.46267489e+01
  6.46767613e+01  1.12911335e+02  3.67228933e+02]
beta-B3u nocc = 1  HOMO = -1.31063649996855  LUMO = -0.101549117967294
   mo_energy = [-1.31063650e+00 -1.01549118e-01  3.82508171e-03  4.74702264e-01
  4.77846593e-01  5.26293993e-01  1.83440682e+00  1.84217056e+00
  2.80823041e+00  5.18476514e+00  5.19694266e+00  1.06670316e+01
  1.52470938e+01  1.52671175e+01  3.50331093e+01  6.46579940e+01
  6.46830204e+01  1.12948716e+02  3.67251281e+02]
multiplicity <S^2> = 2.0053104  2S+1 = 3.0035382
E1 = -133.19971313465336  Ecoul = 34.36079146578688
cycle= 6 E= -98.8389216688665  delta_E= -1.92e-06  |g|= 0.000208  |ddm|= 0.00236
    CPU time for cycle= 6      0.37 sec, wall time      0.09 sec
diis-norm(errvec)=0.000293868
diis-c [-2.15152608e-08 -6.95167939e-05  1.02842039e-03 -1.20927649e-02
  9.31279353e-02 -3.59808941e-01  1.27781487e+00]
alpha HOMO (B3u) = -1.41540209173925  LUMO (Ag) = -0.16598160590619
alpha irrep_nelec = [2, 0, 0, 0, 0, 1, 1, 1]
beta  irrep_nelec = [2, 0, 0, 0, 0, 0, 0, 1]
alpha-Ag nocc = 2  HOMO = -2.40102579424204  LUMO = -0.16598160590619
   mo_energy = [-2.71942153e+01 -2.40102579e+00 -1.65981606e-01  9.40366739e-03
  1.69357720e-02  2.19024505e-02  4.28230354e-01  4.46870120e-01
  7.74680818e-01  1.48882053e+00  1.50128681e+00  1.50548509e+00
  1.57231847e+00  1.62636980e+00  4.12466013e+00  4.80369079e+00
  4.84323806e+00  4.85662269e+00  4.99114052e+00  5.08656911e+00
  1.32465058e+01  1.33253520e+01  1.33519519e+01  1.56704146e+01
  1.57797383e+01  1.75530840e+01  5.06112994e+01  5.07003767e+01
  6.29563597e+01  1.78303298e+02  1.78351624e+02  2.06051671e+02
  8.40202533e+02]
alpha-B1g nocc = 0
   mo_energy = [2.03074526e-02 4.42163865e-01 1.49608942e+00 1.50443297e+00
 1.61229145e+00 4.82665249e+00 4.85326656e+00 5.06176600e+00
 1.32923298e+01 1.33452864e+01 1.57525916e+01 5.06781162e+01
 1.78339544e+02]
alpha-B2g nocc = 0
   mo_energy = [2.03074526e-02 4.42163865e-01 1.49608942e+00 1.50443297e+00
 1.61229145e+00 4.82665249e+00 4.85326656e+00 5.06176600e+00
 1.32923298e+01 1.33452864e+01 1.57525916e+01 5.06781162e+01
 1.78339544e+02]
alpha-B3g nocc = 0
   mo_energy = [1.69357720e-02 4.28230354e-01 1.48882053e+00 1.50128681e+00
 1.57231847e+00 4.80369079e+00 4.84323806e+00 4.99114052e+00
 1.32465058e+01 1.33253520e+01 1.56704146e+01 5.06112994e+01
 1.78303298e+02]
alpha-Au nocc = 0
   mo_energy = [ 0.47379039  1.821331    5.12810274 15.14645533 64.5942951 ]
alpha-B1u nocc = 1  HOMO = -1.53697710677565  LUMO = -0.106719589626949
   mo_energy = [-1.53697711e+00 -1.06719590e-01 -4.96123740e-03  4.68983660e-01
  4.75048002e-01  4.83215839e-01  1.80427337e+00  1.83163409e+00
  2.69367225e+00  5.08680238e+00  5.15329331e+00  1.05213967e+01
  1.50809718e+01  1.51861518e+01  3.49110684e+01  6.45390258e+01
  6.46275300e+01  1.12875411e+02  3.67218201e+02]
alpha-B2u nocc = 1  HOMO = -1.53697710677567  LUMO = -0.10671958962695
   mo_energy = [-1.53697711e+00 -1.06719590e-01 -4.96123740e-03  4.68983660e-01
  4.75048002e-01  4.83215839e-01  1.80427337e+00  1.83163409e+00
  2.69367225e+00  5.08680238e+00  5.15329331e+00  1.05213967e+01
  1.50809718e+01  1.51861518e+01  3.49110684e+01  6.45390258e+01
  6.46275300e+01  1.12875411e+02  3.67218201e+02]
alpha-B3u nocc = 1  HOMO = -1.41540209173925  LUMO = -0.102621905690834
   mo_energy = [-1.41540209e+00 -1.02621906e-01  1.43735149e-03  4.73790388e-01
  4.77195060e-01  5.11602675e-01  1.82133100e+00  1.83509270e+00
  2.76829240e+00  5.12810274e+00  5.16176883e+00  1.06208593e+01
  1.51464553e+01  1.51994583e+01  3.50010842e+01  6.45942951e+01
  6.46386207e+01  1.12934088e+02  3.67246455e+02]
beta-Ag nocc = 2  HOMO = -1.99425908377536  LUMO = -0.15941349226842
   mo_energy = [-2.70888570e+01 -1.99425908e+00 -1.59413492e-01  1.89474948e-02
  1.89910895e-02  2.30763873e-02  4.52860957e-01  4.54560151e-01
  8.22074568e-01  1.49172859e+00  1.50265744e+00  1.50632519e+00
  1.67043485e+00  1.68856712e+00  4.22529048e+00  4.83154237e+00
  4.85842159e+00  4.86734844e+00  5.17576989e+00  5.19853031e+00
  1.33280494e+01  1.33743374e+01  1.33897973e+01  1.58461666e+01
  1.58617609e+01  1.76434360e+01  5.07017007e+01  5.07442432e+01
  6.30008615e+01  1.78332333e+02  1.78366195e+02  2.06067329e+02
  8.40206824e+02]
beta-B1g nocc = 0
   mo_energy = [2.11832431e-02 4.53951364e-01 1.49808993e+00 1.50540714e+00
 1.67422658e+00 4.84722666e+00 4.86512015e+00 5.18078995e+00
 1.33550322e+01 1.33859311e+01 1.58577822e+01 5.07336046e+01
 1.78357729e+02]
beta-B2g nocc = 0
   mo_energy = [2.11832431e-02 4.53951364e-01 1.49808993e+00 1.50540714e+00
 1.67422658e+00 4.84722666e+00 4.86512015e+00 5.18078995e+00
 1.33550322e+01 1.33859311e+01 1.58577822e+01 5.07336046e+01
 1.78357729e+02]
beta-B3g nocc = 0
   mo_energy = [1.89910895e-02 4.52860957e-01 1.49172859e+00 1.50265744e+00
 1.68856712e+00 4.83154237e+00 4.85842159e+00 5.19853031e+00
 1.33280494e+01 1.33743374e+01 1.58461666e+01 5.07017007e+01
 1.78332333e+02]
beta-Au nocc = 0
   mo_energy = [ 0.47470167  1.83440761  5.18478122 15.24713447 64.65802728]
beta-B1u nocc = 0
   mo_energy = [-4.93564537e-01 -9.67182010e-02  1.58572162e-02  4.70560430e-01
  4.77128385e-01  5.78635172e-01  1.82468467e+00  1.84023020e+00
  2.87042508e+00  5.16947777e+00  5.19392318e+00  1.06754128e+01
  1.52220951e+01  1.52621588e+01  3.49992480e+01  6.46267758e+01
  6.46767982e+01  1.12911369e+02  3.67228987e+02]
beta-B2u nocc = 0
   mo_energy = [-4.93564537e-01 -9.67182010e-02  1.58572162e-02  4.70560430e-01
  4.77128385e-01  5.78635172e-01  1.82468467e+00  1.84023020e+00
  2.87042508e+00  5.16947777e+00  5.19392318e+00  1.06754128e+01
  1.52220951e+01  1.52621588e+01  3.49992480e+01  6.46267758e+01
  6.46767982e+01  1.12911369e+02  3.67228987e+02]
beta-B3u nocc = 1  HOMO = -1.31048123978388  LUMO = -0.101546861732275
   mo_energy = [-1.31048124e+00 -1.01546862e-01  3.82989379e-03  4.74701666e-01
[...]
  2.80830313e+00  5.18478401e+00  5.19696403e+00  1.06671090e+01
  1.52471385e+01  1.52671736e+01  3.50331672e+01  6.46580313e+01
  6.46830658e+01  1.12948760e+02  3.67251338e+02]
multiplicity <S^2> = 2.0053219  2S+1 = 3.0035458
E1 = -133.19967177369568  Ecoul = 34.3607500785954
cycle= 70 E= -98.8389216951003  delta_E= 1.56e-13  |g|= 1.12e-12  |ddm|= 4.78e-12
    CPU time for cycle= 70      0.36 sec, wall time      0.09 sec
diis-norm(errvec)=2.39595e-12
Linear dependence found in DIIS error vectors.
diis-c [-2.89052492e-16  1.25000000e-01  1.25000000e-01  1.25000000e-01
  1.25000000e-01  1.25000000e-01  1.25000000e-01  1.25000000e-01
  1.25000000e-01]
alpha HOMO (B3u) = -1.41541737890953  LUMO (Ag) = -0.165981049369686
alpha irrep_nelec = [2, 0, 0, 0, 0, 1, 1, 1]
beta  irrep_nelec = [2, 0, 0, 0, 0, 0, 0, 1]
alpha-Ag nocc = 2  HOMO = -2.40102361521283  LUMO = -0.165981049369686
   mo_energy = [-2.71942129e+01 -2.40102362e+00 -1.65981049e-01  9.40416736e-03
  1.69360418e-02  2.19028295e-02  4.28231081e-01  4.46872391e-01
  7.74682506e-01  1.48882156e+00  1.50128732e+00  1.50548541e+00
  1.57231909e+00  1.62637189e+00  4.12466270e+00  4.80369298e+00
  4.84324021e+00  4.85662480e+00  4.99114434e+00  5.08656863e+00
  1.32465084e+01  1.33253551e+01  1.33519551e+01  1.56704187e+01
  1.57797390e+01  1.75530870e+01  5.06113018e+01  5.07003796e+01
  6.29563628e+01  1.78303299e+02  1.78351628e+02  2.06051674e+02
  8.40202534e+02]
alpha-B1g nocc = 0
   mo_energy = [2.03077285e-02 4.42165882e-01 1.49609016e+00 1.50443334e+00
 1.61229333e+00 4.82665466e+00 4.85326868e+00 5.06176675e+00
 1.32923327e+01 1.33452896e+01 1.57525931e+01 5.06781190e+01
 1.78339547e+02]
alpha-B2g nocc = 0
   mo_energy = [2.03077285e-02 4.42165882e-01 1.49609016e+00 1.50443334e+00
 1.61229333e+00 4.82665466e+00 4.85326868e+00 5.06176675e+00
 1.32923327e+01 1.33452896e+01 1.57525931e+01 5.06781190e+01
 1.78339547e+02]
alpha-B3g nocc = 0
   mo_energy = [1.69360418e-02 4.28231081e-01 1.48882156e+00 1.50128732e+00
 1.57231909e+00 4.80369298e+00 4.84324021e+00 4.99114434e+00
 1.32465084e+01 1.33253551e+01 1.56704187e+01 5.06113018e+01
 1.78303299e+02]
alpha-Au nocc = 0
   mo_energy = [ 0.47379072  1.82133262  5.12810497 15.14645813 64.59429789]
alpha-B1u nocc = 1  HOMO = -1.53696896015255  LUMO = -0.106719440251789
   mo_energy = [-1.53696896e+00 -1.06719440e-01 -4.96095906e-03  4.68984193e-01
  4.75048464e-01  4.83217480e-01  1.80427473e+00  1.83163579e+00
  2.69367661e+00  5.08680435e+00  5.15329566e+00  1.05214008e+01
  1.50809749e+01  1.51861544e+01  3.49110713e+01  6.45390275e+01
  6.46275334e+01  1.12875413e+02  3.67218202e+02]
alpha-B2u nocc = 1  HOMO = -1.53696896015256  LUMO = -0.106719440251785
   mo_energy = [-1.53696896e+00 -1.06719440e-01 -4.96095906e-03  4.68984193e-01
  4.75048464e-01  4.83217480e-01  1.80427473e+00  1.83163579e+00
  2.69367661e+00  5.08680435e+00  5.15329566e+00  1.05214008e+01
  1.50809749e+01  1.51861544e+01  3.49110713e+01  6.45390275e+01
  6.46275334e+01  1.12875413e+02  3.67218202e+02]
alpha-B3u nocc = 1  HOMO = -1.41541737890953  LUMO = -0.102622349109191
   mo_energy = [-1.41541738e+00 -1.02622349e-01  1.43659848e-03  4.73790723e-01
  4.77195146e-01  5.11599720e-01  1.82133262e+00  1.83509441e+00
  2.76828740e+00  5.12810497e+00  5.16177122e+00  1.06208574e+01
  1.51464581e+01  1.51994608e+01  3.50010863e+01  6.45942979e+01
  6.46386243e+01  1.12934092e+02  3.67246458e+02]
beta-Ag nocc = 2  HOMO = -1.99425574616043  LUMO = -0.159413393444587
   mo_energy = [-2.70888537e+01 -1.99425575e+00 -1.59413393e-01  1.89477975e-02
  1.89913315e-02  2.30760402e-02  4.52862019e-01  4.54559637e-01
  8.22075497e-01  1.49172967e+00  1.50265743e+00  1.50632485e+00
  1.67043554e+00  1.68856982e+00  4.22529327e+00  4.83154555e+00
  4.85842307e+00  4.86734942e+00  5.17577527e+00  5.19853267e+00
  1.33280522e+01  1.33743413e+01  1.33898017e+01  1.58461676e+01
  1.58617687e+01  1.76434395e+01  5.07017015e+01  5.07442506e+01
  6.30008647e+01  1.78332334e+02  1.78366200e+02  2.06067331e+02
  8.40206825e+02]
beta-B1g nocc = 0
   mo_energy = [2.11831581e-02 4.53951147e-01 1.49809037e+00 1.50540687e+00
 1.67422775e+00 4.84722882e+00 4.86512126e+00 5.18079469e+00
 1.33550357e+01 1.33859354e+01 1.58577883e+01 5.07336103e+01
 1.78357733e+02]
beta-B2g nocc = 0
   mo_energy = [2.11831581e-02 4.53951147e-01 1.49809037e+00 1.50540687e+00
 1.67422775e+00 4.84722882e+00 4.86512126e+00 5.18079469e+00
 1.33550357e+01 1.33859354e+01 1.58577883e+01 5.07336103e+01
 1.78357733e+02]
beta-B3g nocc = 0
   mo_energy = [1.89913315e-02 4.52862019e-01 1.49172967e+00 1.50265743e+00
 1.68856982e+00 4.83154555e+00 4.85842307e+00 5.19853267e+00
 1.33280522e+01 1.33743413e+01 1.58461676e+01 5.07017015e+01
 1.78332334e+02]
beta-Au nocc = 0
   mo_energy = [ 0.47470172  1.83440835  5.18478401 15.24713853 64.65803134]
beta-B1u nocc = 0
   mo_energy = [-4.93561779e-01 -9.67180740e-02  1.58574737e-02  4.70560950e-01
  4.77128190e-01  5.78636178e-01  1.82468663e+00  1.84023026e+00
  2.87042731e+00  5.16948112e+00  5.19392567e+00  1.06754152e+01
  1.52220963e+01  1.52621646e+01  3.49992496e+01  6.46267758e+01
  6.46768047e+01  1.12911370e+02  3.67228988e+02]
beta-B2u nocc = 0
   mo_energy = [-4.93561779e-01 -9.67180740e-02  1.58574737e-02  4.70560950e-01
  4.77128190e-01  5.78636178e-01  1.82468663e+00  1.84023026e+00
  2.87042731e+00  5.16948112e+00  5.19392567e+00  1.06754152e+01
  1.52220963e+01  1.52621646e+01  3.49992496e+01  6.46267758e+01
  6.46768047e+01  1.12911370e+02  3.67228988e+02]
beta-B3u nocc = 1  HOMO = -1.31047038764122  LUMO = -0.101546867153558
   mo_energy = [-1.31047039e+00 -1.01546867e-01  3.83004735e-03  4.74701721e-01
  4.77845443e-01  5.26323756e-01  1.83440835e+00  1.84216915e+00
  2.80830313e+00  5.18478401e+00  5.19696403e+00  1.06671090e+01
  1.52471385e+01  1.52671736e+01  3.50331672e+01  6.46580313e+01
  6.46830658e+01  1.12948760e+02  3.67251338e+02]
multiplicity <S^2> = 2.0053219  2S+1 = 3.0035458
E1 = -133.19967177369602  Ecoul = 34.360750078595615
cycle= 71 E= -98.8389216951004  delta_E= -1.28e-13  |g|= 1.21e-12  |ddm|= 1.67e-12
    CPU time for cycle= 71      0.37 sec, wall time      0.09 sec
diis-norm(errvec)=2.42343e-12
Linear dependence found in DIIS error vectors.
diis-c [-2.89052492e-16  1.25000000e-01  1.25000000e-01  1.25000000e-01
  1.25000000e-01  1.25000000e-01  1.25000000e-01  1.25000000e-01
  1.25000000e-01]
alpha HOMO (B3u) = -1.41541737890951  LUMO (Ag) = -0.165981049369696
alpha irrep_nelec = [2, 0, 0, 0, 0, 1, 1, 1]
beta  irrep_nelec = [2, 0, 0, 0, 0, 0, 0, 1]
alpha-Ag nocc = 2  HOMO = -2.40102361521314  LUMO = -0.165981049369696
   mo_energy = [-2.71942129e+01 -2.40102362e+00 -1.65981049e-01  9.40416736e-03
  1.69360418e-02  2.19028295e-02  4.28231081e-01  4.46872391e-01
  7.74682506e-01  1.48882156e+00  1.50128732e+00  1.50548541e+00
  1.57231909e+00  1.62637189e+00  4.12466270e+00  4.80369298e+00
  4.84324021e+00  4.85662480e+00  4.99114434e+00  5.08656863e+00
  1.32465084e+01  1.33253551e+01  1.33519551e+01  1.56704187e+01
  1.57797390e+01  1.75530870e+01  5.06113018e+01  5.07003796e+01
  6.29563628e+01  1.78303299e+02  1.78351628e+02  2.06051674e+02
  8.40202534e+02]
alpha-B1g nocc = 0
   mo_energy = [2.03077285e-02 4.42165882e-01 1.49609016e+00 1.50443334e+00
 1.61229333e+00 4.82665466e+00 4.85326868e+00 5.06176675e+00
 1.32923327e+01 1.33452896e+01 1.57525931e+01 5.06781190e+01
 1.78339547e+02]
alpha-B2g nocc = 0
   mo_energy = [2.03077285e-02 4.42165882e-01 1.49609016e+00 1.50443334e+00
 1.61229333e+00 4.82665466e+00 4.85326868e+00 5.06176675e+00
 1.32923327e+01 1.33452896e+01 1.57525931e+01 5.06781190e+01
 1.78339547e+02]
alpha-B3g nocc = 0
   mo_energy = [1.69360418e-02 4.28231081e-01 1.48882156e+00 1.50128732e+00
 1.57231909e+00 4.80369298e+00 4.84324021e+00 4.99114434e+00
 1.32465084e+01 1.33253551e+01 1.56704187e+01 5.06113018e+01
 1.78303299e+02]
alpha-Au nocc = 0
   mo_energy = [ 0.47379072  1.82133262  5.12810497 15.14645813 64.59429789]
alpha-B1u nocc = 1  HOMO = -1.53696896015255  LUMO = -0.106719440251788
   mo_energy = [-1.53696896e+00 -1.06719440e-01 -4.96095906e-03  4.68984193e-01
  4.75048464e-01  4.83217480e-01  1.80427473e+00  1.83163579e+00
  2.69367661e+00  5.08680435e+00  5.15329566e+00  1.05214008e+01
  1.50809749e+01  1.51861544e+01  3.49110713e+01  6.45390275e+01
  6.46275334e+01  1.12875413e+02  3.67218202e+02]
alpha-B2u nocc = 1  HOMO = -1.53696896015255  LUMO = -0.106719440251784
   mo_energy = [-1.53696896e+00 -1.06719440e-01 -4.96095906e-03  4.68984193e-01
  4.75048464e-01  4.83217480e-01  1.80427473e+00  1.83163579e+00
  2.69367661e+00  5.08680435e+00  5.15329566e+00  1.05214008e+01
  1.50809749e+01  1.51861544e+01  3.49110713e+01  6.45390275e+01
  6.46275334e+01  1.12875413e+02  3.67218202e+02]
alpha-B3u nocc = 1  HOMO = -1.41541737890951  LUMO = -0.10262234910922
   mo_energy = [-1.41541738e+00 -1.02622349e-01  1.43659848e-03  4.73790723e-01
  4.77195146e-01  5.11599720e-01  1.82133262e+00  1.83509441e+00
  2.76828740e+00  5.12810497e+00  5.16177122e+00  1.06208574e+01
  1.51464581e+01  1.51994608e+01  3.50010863e+01  6.45942979e+01
  6.46386243e+01  1.12934092e+02  3.67246458e+02]
beta-Ag nocc = 2  HOMO = -1.99425574616026  LUMO = -0.159413393444701
   mo_energy = [-2.70888537e+01 -1.99425575e+00 -1.59413393e-01  1.89477975e-02
  1.89913315e-02  2.30760402e-02  4.52862019e-01  4.54559637e-01
  8.22075497e-01  1.49172967e+00  1.50265743e+00  1.50632485e+00
  1.67043554e+00  1.68856982e+00  4.22529327e+00  4.83154555e+00
  4.85842307e+00  4.86734942e+00  5.17577527e+00  5.19853267e+00
  1.33280522e+01  1.33743413e+01  1.33898017e+01  1.58461676e+01
  1.58617687e+01  1.76434395e+01  5.07017015e+01  5.07442506e+01
  6.30008647e+01  1.78332334e+02  1.78366200e+02  2.06067331e+02
  8.40206825e+02]
beta-B1g nocc = 0
   mo_energy = [2.11831581e-02 4.53951147e-01 1.49809037e+00 1.50540687e+00
 1.67422775e+00 4.84722882e+00 4.86512126e+00 5.18079469e+00
 1.33550357e+01 1.33859354e+01 1.58577883e+01 5.07336103e+01
 1.78357733e+02]
beta-B2g nocc = 0
   mo_energy = [2.11831581e-02 4.53951147e-01 1.49809037e+00 1.50540687e+00
 1.67422775e+00 4.84722882e+00 4.86512126e+00 5.18079469e+00
 1.33550357e+01 1.33859354e+01 1.58577883e+01 5.07336103e+01
 1.78357733e+02]
beta-B3g nocc = 0
   mo_energy = [1.89913315e-02 4.52862019e-01 1.49172967e+00 1.50265743e+00
 1.68856982e+00 4.83154555e+00 4.85842307e+00 5.19853267e+00
 1.33280522e+01 1.33743413e+01 1.58461676e+01 5.07017015e+01
 1.78332334e+02]
beta-Au nocc = 0
   mo_energy = [ 0.47470172  1.83440835  5.18478401 15.24713853 64.65803134]
beta-B1u nocc = 0
   mo_energy = [-4.93561779e-01 -9.67180740e-02  1.58574737e-02  4.70560950e-01
  4.77128190e-01  5.78636178e-01  1.82468663e+00  1.84023026e+00
  2.87042731e+00  5.16948112e+00  5.19392567e+00  1.06754152e+01
  1.52220963e+01  1.52621646e+01  3.49992496e+01  6.46267758e+01
  6.46768047e+01  1.12911370e+02  3.67228988e+02]
beta-B2u nocc = 0
   mo_energy = [-4.93561779e-01 -9.67180740e-02  1.58574737e-02  4.70560950e-01
  4.77128190e-01  5.78636178e-01  1.82468663e+00  1.84023026e+00
  2.87042731e+00  5.16948112e+00  5.19392567e+00  1.06754152e+01
  1.52220963e+01  1.52621646e+01  3.49992496e+01  6.46267758e+01
  6.46768047e+01  1.12911370e+02  3.67228988e+02]
beta-B3u nocc = 1  HOMO = -1.31047038764122  LUMO = -0.101546867153571
   mo_energy = [-1.31047039e+00 -1.01546867e-01  3.83004735e-03  4.74701721e-01
  4.77845443e-01  5.26323756e-01  1.83440835e+00  1.84216915e+00
  2.80830313e+00  5.18478401e+00  5.19696403e+00  1.06671090e+01
  1.52471385e+01  1.52671736e+01  3.50331672e+01  6.46580313e+01
  6.46830658e+01  1.12948760e+02  3.67251338e+02]
multiplicity <S^2> = 2.0053219  2S+1 = 3.0035458
E1 = -133.19967177369588  Ecoul = 34.360750078595544
cycle= 72 E= -98.8389216951003  delta_E= 7.11e-14  |g|= 8.18e-13  |ddm|= 7.47e-13
    CPU time for cycle= 72      0.37 sec, wall time      0.09 sec
alpha HOMO (B3u) = -1.41541737890947  LUMO (Ag) = -0.165981049369733
alpha irrep_nelec = [2, 0, 0, 0, 0, 1, 1, 1]
beta  irrep_nelec = [2, 0, 0, 0, 0, 0, 0, 1]
alpha-Ag nocc = 2  HOMO = -2.40102361521281  LUMO = -0.165981049369733
   mo_energy = [-2.71942129e+01 -2.40102362e+00 -1.65981049e-01  9.40416736e-03
  1.69360418e-02  2.19028295e-02  4.28231081e-01  4.46872391e-01
  7.74682506e-01  1.48882156e+00  1.50128732e+00  1.50548541e+00
  1.57231909e+00  1.62637189e+00  4.12466270e+00  4.80369298e+00
  4.84324021e+00  4.85662480e+00  4.99114434e+00  5.08656863e+00
  1.32465084e+01  1.33253551e+01  1.33519551e+01  1.56704187e+01
  1.57797390e+01  1.75530870e+01  5.06113018e+01  5.07003796e+01
  6.29563628e+01  1.78303299e+02  1.78351628e+02  2.06051674e+02
  8.40202534e+02]
alpha-B1g nocc = 0
   mo_energy = [2.03077285e-02 4.42165882e-01 1.49609016e+00 1.50443334e+00
 1.61229333e+00 4.82665466e+00 4.85326868e+00 5.06176675e+00
 1.32923327e+01 1.33452896e+01 1.57525931e+01 5.06781190e+01
 1.78339547e+02]
alpha-B2g nocc = 0
   mo_energy = [2.03077285e-02 4.42165882e-01 1.49609016e+00 1.50443334e+00
 1.61229333e+00 4.82665466e+00 4.85326868e+00 5.06176675e+00
 1.32923327e+01 1.33452896e+01 1.57525931e+01 5.06781190e+01
 1.78339547e+02]
alpha-B3g nocc = 0
   mo_energy = [1.69360418e-02 4.28231081e-01 1.48882156e+00 1.50128732e+00
 1.57231909e+00 4.80369298e+00 4.84324021e+00 4.99114434e+00
 1.32465084e+01 1.33253551e+01 1.56704187e+01 5.06113018e+01
 1.78303299e+02]
alpha-Au nocc = 0
   mo_energy = [ 0.47379072  1.82133262  5.12810497 15.14645813 64.59429789]
alpha-B1u nocc = 1  HOMO = -1.53696896015254  LUMO = -0.10671944025178
   mo_energy = [-1.53696896e+00 -1.06719440e-01 -4.96095906e-03  4.68984193e-01
  4.75048464e-01  4.83217480e-01  1.80427473e+00  1.83163579e+00
  2.69367661e+00  5.08680435e+00  5.15329566e+00  1.05214008e+01
  1.50809749e+01  1.51861544e+01  3.49110713e+01  6.45390275e+01
  6.46275334e+01  1.12875413e+02  3.67218202e+02]
alpha-B2u nocc = 1  HOMO = -1.53696896015255  LUMO = -0.10671944025179
   mo_energy = [-1.53696896e+00 -1.06719440e-01 -4.96095906e-03  4.68984193e-01
  4.75048464e-01  4.83217480e-01  1.80427473e+00  1.83163579e+00
  2.69367661e+00  5.08680435e+00  5.15329566e+00  1.05214008e+01
  1.50809749e+01  1.51861544e+01  3.49110713e+01  6.45390275e+01
  6.46275334e+01  1.12875413e+02  3.67218202e+02]
alpha-B3u nocc = 1  HOMO = -1.41541737890947  LUMO = -0.102622349109213
   mo_energy = [-1.41541738e+00 -1.02622349e-01  1.43659848e-03  4.73790723e-01
  4.77195146e-01  5.11599720e-01  1.82133262e+00  1.83509441e+00
  2.76828740e+00  5.12810497e+00  5.16177122e+00  1.06208574e+01
  1.51464581e+01  1.51994608e+01  3.50010863e+01  6.45942979e+01
  6.46386243e+01  1.12934092e+02  3.67246458e+02]
beta-Ag nocc = 2  HOMO = -1.99425574616026  LUMO = -0.159413393444595
   mo_energy = [-2.70888537e+01 -1.99425575e+00 -1.59413393e-01  1.89477975e-02
  1.89913315e-02  2.30760402e-02  4.52862019e-01  4.54559637e-01
  8.22075497e-01  1.49172967e+00  1.50265743e+00  1.50632485e+00
  1.67043554e+00  1.68856982e+00  4.22529327e+00  4.83154555e+00
  4.85842307e+00  4.86734942e+00  5.17577527e+00  5.19853267e+00
  1.33280522e+01  1.33743413e+01  1.33898017e+01  1.58461676e+01
  1.58617687e+01  1.76434395e+01  5.07017015e+01  5.07442506e+01
  6.30008647e+01  1.78332334e+02  1.78366200e+02  2.06067331e+02
  8.40206825e+02]
beta-B1g nocc = 0
   mo_energy = [2.11831581e-02 4.53951147e-01 1.49809037e+00 1.50540687e+00
 1.67422775e+00 4.84722882e+00 4.86512126e+00 5.18079469e+00
 1.33550357e+01 1.33859354e+01 1.58577883e+01 5.07336103e+01
 1.78357733e+02]
beta-B2g nocc = 0
   mo_energy = [2.11831581e-02 4.53951147e-01 1.49809037e+00 1.50540687e+00
 1.67422775e+00 4.84722882e+00 4.86512126e+00 5.18079469e+00
 1.33550357e+01 1.33859354e+01 1.58577883e+01 5.07336103e+01
 1.78357733e+02]
beta-B3g nocc = 0
   mo_energy = [1.89913315e-02 4.52862019e-01 1.49172967e+00 1.50265743e+00
 1.68856982e+00 4.83154555e+00 4.85842307e+00 5.19853267e+00
 1.33280522e+01 1.33743413e+01 1.58461676e+01 5.07017015e+01
 1.78332334e+02]
beta-Au nocc = 0
   mo_energy = [ 0.47470172  1.83440835  5.18478401 15.24713853 64.65803134]
beta-B1u nocc = 0
   mo_energy = [-4.93561779e-01 -9.67180740e-02  1.58574737e-02  4.70560950e-01
  4.77128190e-01  5.78636178e-01  1.82468663e+00  1.84023026e+00
  2.87042731e+00  5.16948112e+00  5.19392567e+00  1.06754152e+01
  1.52220963e+01  1.52621646e+01  3.49992496e+01  6.46267758e+01
  6.46768047e+01  1.12911370e+02  3.67228988e+02]
beta-B2u nocc = 0
   mo_energy = [-4.93561779e-01 -9.67180740e-02  1.58574737e-02  4.70560950e-01
  4.77128190e-01  5.78636178e-01  1.82468663e+00  1.84023026e+00
  2.87042731e+00  5.16948112e+00  5.19392567e+00  1.06754152e+01
  1.52220963e+01  1.52621646e+01  3.49992496e+01  6.46267758e+01
  6.46768047e+01  1.12911370e+02  3.67228988e+02]
beta-B3u nocc = 1  HOMO = -1.31047038764128  LUMO = -0.10154686715358
   mo_energy = [-1.31047039e+00 -1.01546867e-01  3.83004735e-03  4.74701721e-01
  4.77845443e-01  5.26323756e-01  1.83440835e+00  1.84216915e+00
  2.80830313e+00  5.18478401e+00  5.19696403e+00  1.06671090e+01
  1.52471385e+01  1.52671736e+01  3.50331672e+01  6.46580313e+01
  6.46830658e+01  1.12948760e+02  3.67251338e+02]
multiplicity <S^2> = 2.0053219  2S+1 = 3.0035458
E1 = -133.19967177369594  Ecoul = 34.360750078595544
Extra cycle  E= -98.8389216951004  delta_E= -5.68e-14  |g|= 8.75e-13  |ddm|= 7.47e-13
    CPU time for scf_cycle     32.74 sec, wall time      8.41 sec
    CPU time for SCF     32.77 sec, wall time      8.44 sec
converged SCF energy = -98.8389216951004  <S^2> = 2.0053219  2S+1 = 3.0035458
irreps of each MO ['Ag' 'Ag' 'B1u' 'B2u' 'B3u' 'Ag' 'B1u' 'B2u' 'B3u' 'B1u' 'B2u' 'B3u' 'Ag'
 'Ag' 'B3g' 'B1g' 'B2g' 'Ag' 'Ag' 'B3g' 'B1g' 'B2g' 'Ag' 'B1u' 'B2u' 'Au'
 'B3u' 'B1u' 'B2u' 'B3u' 'B1u' 'B2u' 'B3u' 'Ag' 'Ag' 'B3g' 'B1g' 'B2g'
 'Ag' 'B3g' 'B1g' 'B2g' 'Ag' 'Ag' 'B3g' 'B1g' 'B2g' 'Ag' 'B1u' 'B2u' 'Au'
 'B3u' 'B1u' 'B2u' 'B3u' 'B1u' 'B2u' 'B3u' 'Ag' 'Ag' 'B3g' 'B1g' 'B2g'
 'Ag' 'B3g' 'B1g' 'B2g' 'Ag' 'Ag' 'B3g' 'B1g' 'B2g' 'Ag' 'B1u' 'B2u' 'Au'
 'B3u' 'B1u' 'B2u' 'B3u' 'B1u' 'B2u' 'B3u' 'Ag' 'B3g' 'B1g' 'B2g' 'Ag'
 'B3g' 'B1g' 'B2g' 'Ag' 'B1u' 'B2u' 'Au' 'B3u' 'B1u' 'B2u' 'B3u' 'Ag'
 'B3g' 'B1g' 'B2g' 'Ag' 'Ag' 'B1u' 'B2u' 'B3u' 'Ag' 'B3g' 'B1g' 'B2g' 'Ag'
 'Ag' 'B1u' 'B2u' 'Au' 'B3u' 'B1u' 'B2u' 'B3u' 'B1u' 'B2u' 'B3u' 'Ag'
 'B3g' 'B1g' 'B2g' 'Ag' 'Ag' 'B1u' 'B2u' 'B3u' 'Ag']
irreps of each MO ['Ag' 'Ag' 'B3u' 'B1u' 'B2u' 'Ag' 'B3u' 'B1u' 'B2u' 'B3u' 'B1u' 'B2u' 'Ag'
 'Ag' 'B3g' 'B1g' 'B2g' 'Ag' 'Ag' 'B3g' 'B1g' 'B2g' 'Ag' 'B1u' 'B2u' 'Au'
 'B3u' 'B1u' 'B2u' 'B3u' 'B3u' 'B1u' 'B2u' 'Ag' 'Ag' 'B3g' 'B1g' 'B2g'
 'Ag' 'B3g' 'B1g' 'B2g' 'Ag' 'Ag' 'B1g' 'B2g' 'Ag' 'B3g' 'B1u' 'B2u' 'Au'
 'B3u' 'B1u' 'B2u' 'B3u' 'B3u' 'B1u' 'B2u' 'Ag' 'Ag' 'B3g' 'B1g' 'B2g'
 'Ag' 'B3g' 'B1g' 'B2g' 'Ag' 'B1u' 'B2u' 'Ag' 'B1g' 'B2g' 'Au' 'B3u' 'B1u'
 'B2u' 'B3u' 'Ag' 'B3g' 'B3u' 'B1u' 'B2u' 'Ag' 'B3g' 'B1g' 'B2g' 'Ag'
 'B3g' 'B1g' 'B2g' 'Ag' 'B1u' 'B2u' 'Au' 'B3u' 'B1u' 'B2u' 'B3u' 'Ag'
 'B3g' 'B1g' 'B2g' 'Ag' 'Ag' 'B1u' 'B2u' 'B3u' 'Ag' 'B3g' 'B1g' 'B2g' 'Ag'
 'Ag' 'B1u' 'B2u' 'Au' 'B3u' 'B1u' 'B2u' 'B3u' 'B1u' 'B2u' 'B3u' 'Ag'
 'B3g' 'B1g' 'B2g' 'Ag' 'Ag' 'B1u' 'B2u' 'B3u' 'Ag']
irreps of each MO ['Ag' 'Ag' 'B3u' 'B1u' 'B2u' 'Ag' 'B3u' 'B2u' 'B1u' 'B1u' 'B2u' 'B3u' 'Ag'
 'B3g' 'Ag' 'B2g' 'B1g' 'Ag' 'Ag' 'B3g' 'B2g' 'B1g' 'Ag' 'B1u' 'B2u' 'Au'
 'B3u' 'B1u' 'B2u' 'B3u' 'B2u' 'B1u' 'B3u' 'Ag' 'B3g' 'Ag' 'B2g' 'B1g'
 'B3g' 'Ag' 'B2g' 'B1g' 'Ag' 'B3g' 'Ag' 'B2g' 'B1g' 'Ag' 'B1u' 'B2u' 'Au'
 'B3u' 'B2u' 'B1u' 'B3u' 'B1u' 'B2u' 'B3u' 'Ag' 'B3g' 'Ag' 'B1g' 'B2g'
 'B3g' 'Ag' 'B1g' 'B2g' 'Ag' 'Ag' 'B3g' 'B1g' 'B2g' 'Ag' 'B2u' 'B1u' 'Au'
 'B3u' 'B2u' 'B1u' 'B3u' 'B2u' 'B1u' 'B3u' 'B3g' 'Ag' 'B2g' 'B1g' 'Ag'
 'B3g' 'B1g' 'B2g' 'Ag' 'B2u' 'B1u' 'Au' 'B3u' 'B2u' 'B1u' 'B3u' 'Ag'
 'B3g' 'B1g' 'B2g' 'Ag' 'Ag' 'B2u' 'B1u' 'B3u' 'B3g' 'Ag' 'B2g' 'B1g' 'Ag'
 'Ag' 'B2u' 'B1u' 'B3u' 'Au' 'B1u' 'B2u' 'B3u' 'B1u' 'B2u' 'B3u' 'Ag'
 'B3g' 'B1g' 'B2g' 'Ag' 'Ag' 'B1u' 'B2u' 'B3u' 'Ag']
