#INFO: **** input file is /lustre09/project/6004934/jaafar1/PySCF-MRCC/Carbon/cation/dawCV4Z/UHF/input.py ****
import pyscf
from pyscf import cc, lib, tools, scf, symm, ao2mo
from pyscf.gto.basis import parse_gaussian
from pyscf.scf import atom_hf

name = 'out'
mol = pyscf.M(
    atom = '''
        C
    ''',
    unit = 'angstrom',
    basis = {
            'C' : parse_gaussian.load('C-d-aug-cc-pwCVQZ.gbs', 'C')
    },
    charge = +1,
    spin = 1,
    symmetry = True,
    verbose = 9,
    symmetry_subgroup = 'D2h',
    output = name +'.txt',
    max_memory = 32000,
)

original_AtomSphAverageRHF = atom_hf.AtomSphAverageRHF

class CustomAtomSphAverageRHF(original_AtomSphAverageRHF):
    def __init__(self, mol):
        super().__init__(mol)
        self.max_cycle = 9999
        self.direct_scf = False

atom_hf.AtomSphAverageRHF = CustomAtomSphAverageRHF

mf = mol.UHF().set(
    conv_tol=1e-13,
    max_cycle=9999,
    ddm_tol=1e-12,
    direct_scf=False,
    chkfile=name + '.chk',
    init_guess='atom',
    irrep_nelec={'Ag': 4, 'B3u': 1}
)

mf.kernel()

atom_hf.AtomSphAverageRHF = original_AtomSphAverageRHF

#pyscf.tools.fcidump.from_chkfile_uhf('FCIdump',name+'.chk',tol=1e-18, float_format='% 0.20E',molpro_orbsym=False,orbsym=None)
pyscf.tools.fcidump.from_scf_uhf(mf,'fort.55',tol=1e-18, float_format='% 0.20E',molpro_orbsym=False)
#MRCCInterface.run_mrcc(mf, fort_file='fort.55', mrcc_input_file='MINP', tol=1e-18, float_format='% 0.20E', molpro_orbsym=False)
#INFO: ******************** input file end ********************


System: uname_result(system='Linux', node='rc32013', release='5.14.0-687.5.4.el9_8.x86_64', version='#1 SMP PREEMPT_DYNAMIC Thu May 28 09:20:26 EDT 2026', machine='x86_64')  Threads 4
Python 3.13.2 (main, Feb  5 2025, 15:06:39) [GCC 13.3.0]
numpy 2.2.2  scipy 1.15.1  h5py 3.13.0
Date: Tue Jun  9 20:50:25 2026
PySCF version 2.10.0
PySCF path  /home/jaafar1/links/projects/rrg-tzeng/jaafar1/VENV/MRCCInterface/lib/python3.13/site-packages/pyscf

[CONFIG] ARGPARSE = False
[CONFIG] DEBUG = False
[CONFIG] MAX_MEMORY = 4000
[CONFIG] TMPDIR = /tmp
[CONFIG] UNIT = angstrom
[CONFIG] VERBOSE = 3
[CONFIG] conf_file = None
[INPUT] verbose = 9
[INPUT] max_memory = 32000 
[INPUT] num. atoms = 1
[INPUT] num. electrons = 5
[INPUT] charge = 1
[INPUT] spin (= nelec alpha-beta = 2S) = 1
[INPUT] symmetry True subgroup D2h
[INPUT] Mole.unit = angstrom
[INPUT] Symbol           X                Y                Z      unit          X                Y                Z       unit  Magmom
[INPUT]  1 C      0.000000000000   0.000000000000   0.000000000000 AA    0.000000000000   0.000000000000   0.000000000000 Bohr   0.0
[INPUT] ---------------- BASIS SET ---------------- 
[INPUT] l, kappa, [nprim/nctr], expnt,             c_1 c_2 ...
[INPUT] C
[INPUT] 0    0    [1    /1   ]  40.881               1
[INPUT] 0    0    [1    /1   ]  15.109               1
[INPUT] 0    0    [12   /2   ]  33980             9.1e-05 -1.9e-05
                                5089              0.000704 -0.000151
                                1157              0.003693 -0.000785
                                326.6             0.01536 -0.003324
                                106.1             0.052929 -0.011512
                                38.11             0.147043 -0.03416
                                14.75             0.305631 -0.077173
                                6.035             0.399345 -0.141493
                                2.53              0.217051 -0.118019
                                0.7355            0.015894 0.273806
                                0.2905            -0.003084 0.58651
                                0.1111            0.000978 0.28543
[INPUT] 0    0    [1    /1   ]  5.584                1
[INPUT] 0    0    [1    /1   ]  0.7355               1
[INPUT] 0    0    [1    /1   ]  0.2905               1
[INPUT] 0    0    [1    /1   ]  0.1111               1
[INPUT] 0    0    [1    /1   ]  0.04145              1
[INPUT] 0    0    [1    /1   ]  0.0155               1
[INPUT] 1    0    [1    /1   ]  54.382               1
[INPUT] 1    0    [1    /1   ]  18.057               1
[INPUT] 1    0    [1    /1   ]  5.996                1
[INPUT] 1    0    [1    /1   ]  0.8132               1
[INPUT] 1    0    [6    /1   ]  34.51             0.005378
                                7.915             0.036132
                                2.368             0.142493
                                0.8132            0.34215
                                0.289             0.463864
                                0.1007            0.250028
[INPUT] 1    0    [1    /1   ]  0.289                1
[INPUT] 1    0    [1    /1   ]  0.1007               1
[INPUT] 1    0    [1    /1   ]  0.03218              1
[INPUT] 1    0    [1    /1   ]  0.0103               1
[INPUT] 2    0    [1    /1   ]  22.804               1
[INPUT] 2    0    [1    /1   ]  5.888                1
[INPUT] 2    0    [1    /1   ]  1.848                1
[INPUT] 2    0    [1    /1   ]  0.649                1
[INPUT] 2    0    [1    /1   ]  0.228                1
[INPUT] 2    0    [1    /1   ]  0.0766               1
[INPUT] 2    0    [1    /1   ]  0.0257               1
[INPUT] 3    0    [1    /1   ]  6.116                1
[INPUT] 3    0    [1    /1   ]  1.419                1
[INPUT] 3    0    [1    /1   ]  0.485                1
[INPUT] 3    0    [1    /1   ]  0.187                1
[INPUT] 3    0    [1    /1   ]  0.0721               1
[INPUT] 4    0    [1    /1   ]  1.011                1
[INPUT] 4    0    [1    /1   ]  0.424                1
[INPUT] 4    0    [1    /1   ]  0.178                1

nuclear repulsion = 0
point group symmetry = SO3, use subgroup D2h
symmetry origin: [0. 0. 0.]
symmetry axis x: [1. 0. 0.]
symmetry axis y: [0. 1. 0.]
symmetry axis z: [0. 0. 1.]
num. orbitals of irrep Ag = 33
num. orbitals of irrep B1g = 13
num. orbitals of irrep B2g = 13
num. orbitals of irrep B3g = 13
num. orbitals of irrep Au = 5
num. orbitals of irrep B1u = 19
num. orbitals of irrep B2u = 19
num. orbitals of irrep B3u = 19
number of shells = 33
number of NR pGTOs = 159
number of NR cGTOs = 134
basis = {'C': [[0, [40.881, 1.0]], [0, [15.109, 1.0]], [0, [33980.0, 9.1e-05, -1.9e-05], [5089.0, 0.000704, -0.000151], [1157.0, 0.003693, -0.000785], [326.6, 0.01536, -0.003324], [106.1, 0.052929, -0.011512], [38.11, 0.147043, -0.03416], [14.75, 0.305631, -0.077173], [6.035, 0.399345, -0.141493], [2.53, 0.217051, -0.118019], [0.7355, 0.015894, 0.273806], [0.2905, -0.003084, 0.58651], [0.1111, 0.000978, 0.28543]], [0, [5.584, 1.0]], [0, [0.7355, 1.0]], [0, [0.2905, 1.0]], [0, [0.1111, 1.0]], [0, [0.04145, 1.0]], [0, [0.0155, 1.0]], [1, [54.382, 1.0]], [1, [18.057, 1.0]], [1, [5.996, 1.0]], [1, [0.8132, 1.0]], [1, [34.51, 0.005378], [7.915, 0.036132], [2.368, 0.142493], [0.8132, 0.34215], [0.289, 0.463864], [0.1007, 0.250028]], [1, [0.289, 1.0]], [1, [0.1007, 1.0]], [1, [0.03218, 1.0]], [1, [0.0103, 1.0]], [2, [22.804, 1.0]], [2, [5.888, 1.0]], [2, [1.848, 1.0]], [2, [0.649, 1.0]], [2, [0.228, 1.0]], [2, [0.0766, 1.0]], [2, [0.0257, 1.0]], [3, [6.116, 1.0]], [3, [1.419, 1.0]], [3, [0.485, 1.0]], [3, [0.187, 1.0]], [3, [0.0721, 1.0]], [4, [1.011, 1.0]], [4, [0.424, 1.0]], [4, [0.178, 1.0]]]}
ecp = {}
bas 0, expnt(s) = [40.881]
bas 1, expnt(s) = [15.109]
bas 2, expnt(s) = [3.398e+04 5.089e+03 1.157e+03 3.266e+02 1.061e+02 3.811e+01 1.475e+01
 6.035e+00 2.530e+00 7.355e-01 2.905e-01 1.111e-01]
bas 3, expnt(s) = [5.584]
bas 4, expnt(s) = [0.7355]
bas 5, expnt(s) = [0.2905]
bas 6, expnt(s) = [0.1111]
bas 7, expnt(s) = [0.04145]
bas 8, expnt(s) = [0.0155]
bas 9, expnt(s) = [54.382]
bas 10, expnt(s) = [18.057]
bas 11, expnt(s) = [5.996]
bas 12, expnt(s) = [0.8132]
bas 13, expnt(s) = [34.51    7.915   2.368   0.8132  0.289   0.1007]
bas 14, expnt(s) = [0.289]
bas 15, expnt(s) = [0.1007]
bas 16, expnt(s) = [0.03218]
bas 17, expnt(s) = [0.0103]
bas 18, expnt(s) = [22.804]
bas 19, expnt(s) = [5.888]
bas 20, expnt(s) = [1.848]
bas 21, expnt(s) = [0.649]
bas 22, expnt(s) = [0.228]
bas 23, expnt(s) = [0.0766]
bas 24, expnt(s) = [0.0257]
bas 25, expnt(s) = [6.116]
bas 26, expnt(s) = [1.419]
bas 27, expnt(s) = [0.485]
bas 28, expnt(s) = [0.187]
bas 29, expnt(s) = [0.0721]
bas 30, expnt(s) = [1.011]
bas 31, expnt(s) = [0.424]
bas 32, expnt(s) = [0.178]
CPU time:         1.00
arg.atm = [[ 6 20  1 23  0  0]]
arg.bas = [[  0   0   1   1   0  24  25   0]
 [  0   0   1   1   0  26  27   0]
 [  0   0  12   2   0  28  40   0]
 [  0   0   1   1   0  64  65   0]
 [  0   0   1   1   0  66  67   0]
 [  0   0   1   1   0  68  69   0]
 [  0   0   1   1   0  70  71   0]
 [  0   0   1   1   0  72  73   0]
 [  0   0   1   1   0  74  75   0]
 [  0   1   1   1   0  76  77   0]
 [  0   1   1   1   0  78  79   0]
 [  0   1   1   1   0  80  81   0]
 [  0   1   1   1   0  82  83   0]
 [  0   1   6   1   0  84  90   0]
 [  0   1   1   1   0  96  97   0]
 [  0   1   1   1   0  98  99   0]
 [  0   1   1   1   0 100 101   0]
 [  0   1   1   1   0 102 103   0]
 [  0   2   1   1   0 104 105   0]
 [  0   2   1   1   0 106 107   0]
 [  0   2   1   1   0 108 109   0]
 [  0   2   1   1   0 110 111   0]
 [  0   2   1   1   0 112 113   0]
 [  0   2   1   1   0 114 115   0]
 [  0   2   1   1   0 116 117   0]
 [  0   3   1   1   0 118 119   0]
 [  0   3   1   1   0 120 121   0]
 [  0   3   1   1   0 122 123   0]
 [  0   3   1   1   0 124 125   0]
 [  0   3   1   1   0 126 127   0]
 [  0   4   1   1   0 128 129   0]
 [  0   4   1   1   0 130 131   0]
 [  0   4   1   1   0 132 133   0]]
arg.env = [ 0.00000000e+00  0.00000000e+00  0.00000000e+00  0.00000000e+00
  0.00000000e+00  0.00000000e+00  0.00000000e+00  0.00000000e+00
  0.00000000e+00  0.00000000e+00  0.00000000e+00  0.00000000e+00
  0.00000000e+00  0.00000000e+00  0.00000000e+00  0.00000000e+00
  0.00000000e+00  0.00000000e+00  0.00000000e+00  0.00000000e+00
  0.00000000e+00  0.00000000e+00  0.00000000e+00  0.00000000e+00
  4.08810000e+01  4.08466230e+01  1.51090000e+01  1.93616255e+01
  3.39800000e+04  5.08900000e+03  1.15700000e+03  3.26600000e+02
  1.06100000e+02  3.81100000e+01  1.47500000e+01  6.03500000e+00
  2.53000000e+00  7.35500000e-01  2.90500000e-01  1.11100000e-01
  5.75405620e-01  1.07167271e+00  1.85094921e+00  2.98138819e+00
  4.42074437e+00  5.69821383e+00  5.81174558e+00  3.88482431e+00
  1.10006249e+00  3.18922671e-02 -3.08311091e-03  4.75488015e-04
 -1.20139513e-01 -2.29861386e-01 -3.93445345e-01 -6.45190384e-01
 -9.61506123e-01 -1.32376779e+00 -1.46748657e+00 -1.37644114e+00
 -5.98145799e-01  5.49407652e-01  5.86340319e-01  1.38771377e-01
  5.58400000e+00  9.17749341e+00  7.35500000e-01  2.00655945e+00
  2.90500000e-01  9.99711359e-01  1.11100000e-01  4.86183895e-01
  4.14500000e-02  2.32091067e-01  1.55000000e-02  1.10984875e-01
  5.43820000e+01  4.30827446e+02  1.80570000e+01  1.08590389e+02
  5.99600000e+00  2.73723083e+01  8.13200000e-01  2.25284392e+00
  3.45100000e+01  7.91500000e+00  2.36800000e+00  8.13200000e-01
  2.89000000e-01  1.00700000e-01  1.31230920e+00  1.39939342e+00
  1.22111012e+00  7.70810166e-01  2.86745855e-01  4.13770632e-02
  2.89000000e-01  6.18168251e-01  1.00700000e-01  1.65489800e-01
  3.21800000e-02  3.97618829e-02  1.03000000e-02  9.57262230e-03
  2.28040000e+01  6.20938649e+02  5.88800000e+00  5.80728364e+01
  1.84800000e+00  7.64289385e+00  6.49000000e-01  1.22449666e+00
  2.28000000e-01  1.96297771e-01  7.66000000e-02  2.91024621e-02
  2.57000000e-02  4.30439732e-03  6.11600000e+00  1.16027834e+02
  1.41900000e+00  4.33481684e+00  4.85000000e-01  3.87194584e-01
  1.87000000e-01  4.53580083e-02  7.21000000e-02  5.31330452e-03
  1.01100000e+00  1.35514192e+00  4.24000000e-01  1.24215333e-01
  1.78000000e-01  1.14175812e-02]
ecpbas  = []


******** <class 'pyscf.scf.uhf_symm.SymAdaptedUHF'> ********
method = SymAdaptedUHF
initial guess = atom
damping factor = 0
level_shift factor = 0
DIIS = <class 'pyscf.scf.diis.CDIIS'>
diis_start_cycle = 1
diis_space = 8
diis_damp = 0
SCF conv_tol = 1e-13
SCF conv_tol_grad = None
SCF ddm_tol = 1e-12
SCF max_cycles = 9999
direct_scf = False
chkfile to save SCF result = out.chk
max_memory 32000 MB (current use 129 MB)
number electrons alpha = 3  beta = 2
irrep_nelec {'Ag': 4, 'B3u': 1}
Freeze 5 electrons in irreps ['Ag', 'B3u']
    0 free electrons in irreps B1g B2g B3g Au B1u B2u
cond(S) = 109713.46956440502

WARN: Singularity detected in overlap matrix (condition number = 1.1e+05). SCF may be inaccurate and hard to converge.

Set gradient conv threshold to 3.16228e-07
Spherically averaged atomic HF for {'C'}


******** <class '__main__.CustomAtomSphAverageRHF'> ********
method = CustomAtomSphAverageRHF
initial guess = minao
damping factor = 0
level_shift factor = 0
DIIS = <class 'pyscf.scf.diis.CDIIS'>
diis_start_cycle = 1
diis_space = 8
diis_damp = 0
SCF conv_tol = 1e-09
SCF conv_tol_grad = None
SCF ddm_tol = 1e-10
SCF max_cycles = 9999
direct_scf = False
chkfile to save SCF result = /tmp/tmpd5g7rm3x
max_memory 32000 MB (current use 131 MB)
atom = C
Set gradient conv threshold to 3.16228e-05
Initial guess from minao.
Nelec from initial guess = 5.99995599241204
E1 = -50.7547386414266  E_coul = 13.468704173294261
init E= -37.2860344681323
l = 0  e_0 = -11.2261825
l = 0  e_1 = -0.672997468
l = 0  e_2 = 0.0260045511
l = 0  e_3 = 0.146644571
l = 0  e_4 = 0.580476413
l = 0  e_5 = 2.09780137
l = 0  e_6 = 7.84522734
l = 0  e_7 = 27.3852748
l = 0  e_8 = 91.7435223
l = 0  e_9 = 381.311316
l = 1  e_0 = -0.0484068634
l = 1  e_1 = 0.0257082079
l = 1  e_2 = 0.126821273
l = 1  e_3 = 0.494054211
l = 1  e_4 = 1.63829511
l = 1  e_5 = 5.10287675
l = 1  e_6 = 15.6014394
l = 1  e_7 = 50.0655314
l = 1  e_8 = 167.361752
l = 2  e_0 = 0.0835663655
l = 2  e_1 = 0.29713928
l = 2  e_2 = 0.847137313
l = 2  e_3 = 2.28509681
l = 2  e_4 = 6.41357023
l = 2  e_5 = 20.2980492
l = 2  e_6 = 79.0152708
l = 3  e_0 = 0.300960473
l = 3  e_1 = 0.921738024
l = 3  e_2 = 2.4180059
l = 3  e_3 = 6.59187834
l = 3  e_4 = 25.4557952
l = 4  e_0 = 0.908962385
l = 4  e_1 = 2.51298556
l = 4  e_2 = 6.22988002
    CPU time for initialize scf      1.21 sec, wall time      0.32 sec
l = 0  e_0 = -11.2261825
l = 0  e_1 = -0.672997468
l = 0  e_2 = 0.0260045511
l = 0  e_3 = 0.146644571
l = 0  e_4 = 0.580476413
l = 0  e_5 = 2.09780137
l = 0  e_6 = 7.84522734
l = 0  e_7 = 27.3852748
l = 0  e_8 = 91.7435223
l = 0  e_9 = 381.311316
l = 1  e_0 = -0.0484068634
l = 1  e_1 = 0.0257082079
l = 1  e_2 = 0.126821273
l = 1  e_3 = 0.494054211
l = 1  e_4 = 1.63829511
l = 1  e_5 = 5.10287675
l = 1  e_6 = 15.6014394
l = 1  e_7 = 50.0655314
l = 1  e_8 = 167.361752
l = 2  e_0 = 0.0835663655
l = 2  e_1 = 0.29713928
l = 2  e_2 = 0.847137313
l = 2  e_3 = 2.28509681
l = 2  e_4 = 6.41357023
l = 2  e_5 = 20.2980492
l = 2  e_6 = 79.0152708
l = 3  e_0 = 0.300960473
l = 3  e_1 = 0.921738024
l = 3  e_2 = 2.4180059
l = 3  e_3 = 6.59187834
l = 3  e_4 = 25.4557952
l = 4  e_0 = 0.908962385
l = 4  e_1 = 2.51298556
l = 4  e_2 = 6.22988002
l = 0  occ = 2 + 0
l = 1  occ = 0 + 0.6667
l = 2  occ = 0 + 0
l = 3  occ = 0 + 0
E1 = -49.295165682071605  E_coul = 11.966329779513368
cycle= 1 E= -37.3288359025582  delta_E= -0.0428  |g|=    0  |ddm|= 0.36
    CPU time for cycle= 1      0.16 sec, wall time      0.04 sec
diis-norm(errvec)=0.228701
diis-c [-0.0523042  1.       ]
l = 0  e_0 = -11.6518249
l = 0  e_1 = -0.852996065
l = 0  e_2 = 0.0203110699
l = 0  e_3 = 0.125509891
l = 0  e_4 = 0.515784402
l = 0  e_5 = 1.93112417
l = 0  e_6 = 7.54210517
l = 0  e_7 = 26.9939393
l = 0  e_8 = 91.3088162
l = 0  e_9 = 380.854471
l = 1  e_0 = -0.187852612
l = 1  e_1 = 0.0238451526
l = 1  e_2 = 0.110863462
l = 1  e_3 = 0.427890942
l = 1  e_4 = 1.4747752
l = 1  e_5 = 4.8274017
l = 1  e_6 = 15.2364026
l = 1  e_7 = 49.6452692
l = 1  e_8 = 166.914045
l = 2  e_0 = 0.0812481028
l = 2  e_1 = 0.275823422
l = 2  e_2 = 0.771374381
l = 2  e_3 = 2.12057978
l = 2  e_4 = 6.13559395
l = 2  e_5 = 19.9205312
l = 2  e_6 = 78.5823635
l = 3  e_0 = 0.294401921
l = 3  e_1 = 0.883499998
l = 3  e_2 = 2.3012334
l = 3  e_3 = 6.34747339
l = 3  e_4 = 25.0732797
l = 4  e_0 = 0.888633258
l = 4  e_1 = 2.43438845
l = 4  e_2 = 6.04135312
l = 0  occ = 2 + 0
l = 1  occ = 0 + 0.6667
l = 2  occ = 0 + 0
l = 3  occ = 0 + 0
E1 = -50.13285096758317  E_coul = 12.792756637842716
cycle= 2 E= -37.3400943297405  delta_E= -0.0113  |g|=    0  |ddm|= 0.177
    CPU time for cycle= 2      0.16 sec, wall time      0.04 sec
diis-norm(errvec)=0.103785
diis-c [-3.72409067e-04  3.09145239e-01  6.90854761e-01]
l = 0  e_0 = -11.4852539
l = 0  e_1 = -0.786384921
l = 0  e_2 = 0.0230112038
l = 0  e_3 = 0.133888501
l = 0  e_4 = 0.539860222
l = 0  e_5 = 1.99375664
l = 0  e_6 = 7.65850656
l = 0  e_7 = 27.1463273
l = 0  e_8 = 91.4808524
l = 0  e_9 = 381.038448
l = 1  e_0 = -0.132888177
l = 1  e_1 = 0.0247022266
l = 1  e_2 = 0.117996995
l = 1  e_3 = 0.454846821
l = 1  e_4 = 1.53833982
l = 1  e_5 = 4.93415987
l = 1  e_6 = 15.3780777
l = 1  e_7 = 49.8098916
l = 1  e_8 = 167.092455
l = 2  e_0 = 0.0823741085
l = 2  e_1 = 0.284684005
l = 2  e_2 = 0.801270857
l = 2  e_3 = 2.18442899
l = 2  e_4 = 6.24302594
l = 2  e_5 = 20.0670066
l = 2  e_6 = 78.7525016
l = 3  e_0 = 0.297404536
l = 3  e_1 = 0.899044656
l = 3  e_2 = 2.34676155
l = 3  e_3 = 6.44183616
l = 3  e_4 = 25.2214211
l = 4  e_0 = 0.897322961
l = 4  e_1 = 2.46540547
l = 4  e_2 = 6.11417059
l = 0  occ = 2 + 0
l = 1  occ = 0 + 0.6667
l = 2  occ = 0 + 0
l = 3  occ = 0 + 0
E1 = -49.85941326657775  E_coul = 12.515546136520836
cycle= 3 E= -37.3438671300569  delta_E= -0.00377  |g|=    0  |ddm|= 0.0737
    CPU time for cycle= 3      0.16 sec, wall time      0.04 sec
diis-norm(errvec)=0.0068838
diis-c [-4.75390820e-06 -5.81777956e-02 -6.19400787e-02  1.12011787e+00]
l = 0  e_0 = -11.4873545
l = 0  e_1 = -0.78674801
l = 0  e_2 = 0.02332754
l = 0  e_3 = 0.134317165
l = 0  e_4 = 0.54049714
l = 0  e_5 = 1.99429587
l = 0  e_6 = 7.65795419
l = 0  e_7 = 27.1446858
l = 0  e_8 = 91.4788326
l = 0  e_9 = 381.036651
l = 1  e_0 = -0.132483281
l = 1  e_1 = 0.0248066373
l = 1  e_2 = 0.118534758
l = 1  e_3 = 0.45588109
l = 1  e_4 = 1.53927171
l = 1  e_5 = 4.93412423
l = 1  e_6 = 15.3768241
l = 1  e_7 = 49.8078806
l = 1  e_8 = 167.090424
l = 2  e_0 = 0.0825799675
l = 2  e_1 = 0.285354858
l = 2  e_2 = 0.802383841
l = 2  e_3 = 2.1854861
l = 2  e_4 = 6.24307629
l = 2  e_5 = 20.0655902
l = 2  e_6 = 78.7503228
l = 3  e_0 = 0.297880897
l = 3  e_1 = 0.900184408
l = 3  e_2 = 2.34815406
l = 3  e_3 = 6.44235564
l = 3  e_4 = 25.2199416
l = 4  e_0 = 0.89831765
l = 4  e_1 = 2.46693832
l = 4  e_2 = 6.11527449
l = 0  occ = 2 + 0
l = 1  occ = 0 + 0.6667
l = 2  occ = 0 + 0
l = 3  occ = 0 + 0
E1 = -49.86301395526302  E_coul = 12.519139082782175
cycle= 4 E= -37.3438748724808  delta_E= -7.74e-06  |g|=    0  |ddm|= 0.00378
    CPU time for cycle= 4      0.16 sec, wall time      0.04 sec
diis-norm(errvec)=0.00206865
diis-c [-1.20741323e-07 -1.03121204e-02 -3.69481481e-03 -1.71847393e-02
  1.03119167e+00]
l = 0  e_0 = -11.4890274
l = 0  e_1 = -0.787787021
l = 0  e_2 = 0.0232731519
l = 0  e_3 = 0.134134959
l = 0  e_4 = 0.540038158
l = 0  e_5 = 1.99333222
l = 0  e_6 = 7.65652001
l = 0  e_7 = 27.1430667
l = 0  e_8 = 91.4772257
l = 0  e_9 = 381.035166
l = 1  e_0 = -0.133149605
l = 1  e_1 = 0.0247891227
l = 1  e_2 = 0.118407278
l = 1  e_3 = 0.455445672
l = 1  e_4 = 1.53838219
l = 1  e_5 = 4.93281299
l = 1  e_6 = 15.3752517
l = 1  e_7 = 49.8062336
l = 1  e_8 = 167.088851
l = 2  e_0 = 0.0825560517
l = 2  e_1 = 0.285174667
l = 2  e_2 = 0.801876982
l = 2  e_3 = 2.184542
l = 2  e_4 = 6.24171773
l = 2  e_5 = 20.0639726
l = 2  e_6 = 78.748666
l = 3  e_0 = 0.297811823
l = 3  e_1 = 0.899866107
l = 3  e_2 = 2.34739094
l = 3  e_3 = 6.44108395
l = 3  e_4 = 25.2182941
l = 4  e_0 = 0.89812207
l = 4  e_1 = 2.46635015
l = 4  e_2 = 6.11418609
l = 0  occ = 2 + 0
l = 1  occ = 0 + 0.6667
l = 2  occ = 0 + 0
l = 3  occ = 0 + 0
E1 = -49.86694480176919  E_coul = 12.523068924038009
cycle= 5 E= -37.3438758777312  delta_E= -1.01e-06  |g|=    0  |ddm|= 0.00241
    CPU time for cycle= 5      0.17 sec, wall time      0.04 sec
diis-norm(errvec)=0.000177647
diis-c [-1.62890966e-09  4.11376303e-04 -1.01523668e-03  1.47815702e-02
 -2.37321498e-01  1.22314379e+00]
l = 0  e_0 = -11.489148
l = 0  e_1 = -0.787888292
l = 0  e_2 = 0.0232608763
l = 0  e_3 = 0.134107612
l = 0  e_4 = 0.53998051
l = 0  e_5 = 1.99323572
l = 0  e_6 = 7.65640571
l = 0  e_7 = 27.1429469
l = 0  e_8 = 91.4771025
l = 0  e_9 = 381.035041
l = 1  e_0 = -0.133208288
l = 1  e_1 = 0.0247857824
l = 1  e_2 = 0.11838722
l = 1  e_3 = 0.455391062
l = 1  e_4 = 1.53829358
l = 1  e_5 = 4.93270337
l = 1  e_6 = 15.3751337
l = 1  e_7 = 49.8061116
l = 1  e_8 = 167.088726
l = 2  e_0 = 0.0825493964
l = 2  e_1 = 0.285144981
l = 2  e_2 = 0.801814069
l = 2  e_3 = 2.1844467
l = 2  e_4 = 6.24160711
l = 2  e_5 = 20.0638547
l = 2  e_6 = 78.7485429
l = 3  e_0 = 0.297795342
l = 3  e_1 = 0.899815644
l = 3  e_2 = 2.34730307
l = 3  e_3 = 6.44097455
l = 3  e_4 = 25.2181763
l = 4  e_0 = 0.898083783
l = 4  e_1 = 2.46627134
l = 4  e_2 = 6.11408092
l = 0  occ = 2 + 0
l = 1  occ = 0 + 0.6667
l = 2  occ = 0 + 0
l = 3  occ = 0 + 0
E1 = -49.867233558481935  E_coul = 12.523357672014379
cycle= 6 E= -37.3438758864676  delta_E= -8.74e-09  |g|=    0  |ddm|= 0.000301
    CPU time for cycle= 6      0.16 sec, wall time      0.04 sec
diis-norm(errvec)=9.34425e-06
diis-c [-6.37746924e-12 -3.33825676e-05  9.46119718e-05 -1.61957125e-03
  2.52218720e-02 -1.92843333e-01  1.16917980e+00]
l = 0  e_0 = -11.4891524
l = 0  e_1 = -0.78789306
l = 0  e_2 = 0.0232602359
l = 0  e_3 = 0.134106525
l = 0  e_4 = 0.539978384
l = 0  e_5 = 1.99323228
l = 0  e_6 = 7.65640142
l = 0  e_7 = 27.1429425
l = 0  e_8 = 91.4770988
l = 0  e_9 = 381.035039
l = 1  e_0 = -0.133210644
l = 1  e_1 = 0.0247857597
l = 1  e_2 = 0.118386604
l = 1  e_3 = 0.455389032
l = 1  e_4 = 1.53829035
l = 1  e_5 = 4.93269926
l = 1  e_6 = 15.3751292
l = 1  e_7 = 49.8061074
l = 1  e_8 = 167.088723
l = 2  e_0 = 0.0825490566
l = 2  e_1 = 0.285143783
l = 2  e_2 = 0.801811772
l = 2  e_3 = 2.18444323
l = 2  e_4 = 6.24160296
l = 2  e_5 = 20.0638501
l = 2  e_6 = 78.7485388
l = 3  e_0 = 0.297794584
l = 3  e_1 = 0.899813664
l = 3  e_2 = 2.34729992
l = 3  e_3 = 6.44097057
l = 3  e_4 = 25.2181715
l = 4  e_0 = 0.898082133
l = 4  e_1 = 2.46626844
l = 4  e_2 = 6.11407725
l = 0  occ = 2 + 0
l = 1  occ = 0 + 0.6667
l = 2  occ = 0 + 0
l = 3  occ = 0 + 0
E1 = -49.86723815139499  E_coul = 12.523362264881566
cycle= 7 E= -37.3438758865134  delta_E= -4.59e-11  |g|=    0  |ddm|= 1.6e-05
    CPU time for cycle= 7      0.16 sec, wall time      0.04 sec
diis-norm(errvec)=3.16083e-07
diis-c [-5.90493286e-15 -3.13648315e-07 -4.61379441e-06  9.41233683e-05
 -1.03126935e-03  8.68449282e-03 -8.18036249e-02  1.07406121e+00]
l = 0  e_0 = -11.4891526
l = 0  e_1 = -0.787893248
l = 0  e_2 = 0.0232602004
l = 0  e_3 = 0.13410647
l = 0  e_4 = 0.539978266
l = 0  e_5 = 1.9932321
l = 0  e_6 = 7.65640121
l = 0  e_7 = 27.1429423
l = 0  e_8 = 91.4770986
l = 0  e_9 = 381.035038
l = 1  e_0 = -0.133210781
l = 1  e_1 = 0.0247857499
l = 1  e_2 = 0.118386559
l = 1  e_3 = 0.455388922
l = 1  e_4 = 1.53829018
l = 1  e_5 = 4.93269905
l = 1  e_6 = 15.375129
l = 1  e_7 = 49.8061072
l = 1  e_8 = 167.088723
l = 2  e_0 = 0.0825490349
l = 2  e_1 = 0.285143715
l = 2  e_2 = 0.801811636
l = 2  e_3 = 2.18444304
l = 2  e_4 = 6.24160274
l = 2  e_5 = 20.0638499
l = 2  e_6 = 78.7485386
l = 3  e_0 = 0.297794538
l = 3  e_1 = 0.89981355
l = 3  e_2 = 2.34729975
l = 3  e_3 = 6.44097036
l = 3  e_4 = 25.2181713
l = 4  e_0 = 0.898082039
l = 4  e_1 = 2.46626828
l = 4  e_2 = 6.11407704
l = 0  occ = 2 + 0
l = 1  occ = 0 + 0.6667
l = 2  occ = 0 + 0
l = 3  occ = 0 + 0
E1 = -49.86723856173948  E_coul = 12.52336267522603
cycle= 8 E= -37.3438758865134  delta_E= -1.42e-14  |g|=    0  |ddm|= 9.88e-07
    CPU time for cycle= 8      0.16 sec, wall time      0.04 sec
diis-norm(errvec)=8.68908e-09
Linear dependence found in DIIS error vectors.
diis-c [-1.60022932e-15 -1.66619958e-07 -2.24216807e-06  4.49427319e-05
 -4.92195907e-04  4.15174671e-03 -3.86428560e-02  4.97531563e-01
  5.37409209e-01]
l = 0  e_0 = -11.4891526
l = 0  e_1 = -0.787893246
l = 0  e_2 = 0.0232602005
l = 0  e_3 = 0.134106471
l = 0  e_4 = 0.539978267
l = 0  e_5 = 1.99323211
l = 0  e_6 = 7.65640122
l = 0  e_7 = 27.1429423
l = 0  e_8 = 91.4770986
l = 0  e_9 = 381.035038
l = 1  e_0 = -0.133210779
l = 1  e_1 = 0.0247857498
l = 1  e_2 = 0.118386559
l = 1  e_3 = 0.455388923
l = 1  e_4 = 1.53829018
l = 1  e_5 = 4.93269905
l = 1  e_6 = 15.375129
l = 1  e_7 = 49.8061072
l = 1  e_8 = 167.088723
l = 2  e_0 = 0.0825490349
l = 2  e_1 = 0.285143716
l = 2  e_2 = 0.801811637
l = 2  e_3 = 2.18444304
l = 2  e_4 = 6.24160274
l = 2  e_5 = 20.0638499
l = 2  e_6 = 78.7485386
l = 3  e_0 = 0.297794538
l = 3  e_1 = 0.89981355
l = 3  e_2 = 2.34729975
l = 3  e_3 = 6.44097036
l = 3  e_4 = 25.2181713
l = 4  e_0 = 0.898082039
l = 4  e_1 = 2.46626828
l = 4  e_2 = 6.11407704
l = 0  occ = 2 + 0
l = 1  occ = 0 + 0.6667
l = 2  occ = 0 + 0
l = 3  occ = 0 + 0
E1 = -49.86723856128885  E_coul = 12.523362674775447
cycle= 9 E= -37.3438758865134  delta_E= 4.26e-14  |g|=    0  |ddm|= 8.54e-09
    CPU time for cycle= 9      0.17 sec, wall time      0.04 sec
diis-norm(errvec)=4.49235e-09
Linear dependence found in DIIS error vectors.
diis-c [-7.56242422e-16  3.49932830e-01 -1.44774524e-06  2.97981504e-05
 -3.41117715e-04  2.82039009e-03 -2.56979894e-02  3.23500456e-01
  3.49757080e-01]
l = 0  e_0 = -11.4891526
l = 0  e_1 = -0.787893246
l = 0  e_2 = 0.0232602004
l = 0  e_3 = 0.13410647
l = 0  e_4 = 0.539978267
l = 0  e_5 = 1.99323211
l = 0  e_6 = 7.65640121
l = 0  e_7 = 27.1429423
l = 0  e_8 = 91.4770986
l = 0  e_9 = 381.035038
l = 1  e_0 = -0.133210779
l = 1  e_1 = 0.0247857498
l = 1  e_2 = 0.118386559
l = 1  e_3 = 0.455388922
l = 1  e_4 = 1.53829018
l = 1  e_5 = 4.93269905
l = 1  e_6 = 15.375129
l = 1  e_7 = 49.8061072
l = 1  e_8 = 167.088723
l = 2  e_0 = 0.0825490348
l = 2  e_1 = 0.285143715
l = 2  e_2 = 0.801811637
l = 2  e_3 = 2.18444304
l = 2  e_4 = 6.24160274
l = 2  e_5 = 20.0638499
l = 2  e_6 = 78.7485386
l = 3  e_0 = 0.297794538
l = 3  e_1 = 0.89981355
l = 3  e_2 = 2.34729975
l = 3  e_3 = 6.44097036
l = 3  e_4 = 25.2181713
l = 4  e_0 = 0.898082039
l = 4  e_1 = 2.46626828
l = 4  e_2 = 6.11407704
l = 0  occ = 2 + 0
l = 1  occ = 0 + 0.6667
l = 2  occ = 0 + 0
l = 3  occ = 0 + 0
E1 = -49.86723856497365  E_coul = 12.523362678460181
cycle= 10 E= -37.3438758865135  delta_E= -6.39e-14  |g|=    0  |ddm|= 3.4e-09
    CPU time for cycle= 10      0.17 sec, wall time      0.06 sec
diis-norm(errvec)=3.65863e-09
Linear dependence found in DIIS error vectors.
diis-c [-6.52114950e-16  2.56890057e-01  2.56906923e-01  8.89205186e-06
 -8.80178736e-05  9.96902907e-04 -1.40038582e-02  2.42450057e-01
  2.56839044e-01]
l = 0  e_0 = -11.4891526
l = 0  e_1 = -0.787893247
l = 0  e_2 = 0.0232602003
l = 0  e_3 = 0.13410647
l = 0  e_4 = 0.539978266
l = 0  e_5 = 1.9932321
l = 0  e_6 = 7.65640121
l = 0  e_7 = 27.1429423
l = 0  e_8 = 91.4770986
l = 0  e_9 = 381.035038
l = 1  e_0 = -0.13321078
l = 1  e_1 = 0.0247857498
l = 1  e_2 = 0.118386559
l = 1  e_3 = 0.455388921
l = 1  e_4 = 1.53829018
l = 1  e_5 = 4.93269905
l = 1  e_6 = 15.375129
l = 1  e_7 = 49.8061072
l = 1  e_8 = 167.088723
l = 2  e_0 = 0.0825490348
l = 2  e_1 = 0.285143715
l = 2  e_2 = 0.801811636
l = 2  e_3 = 2.18444304
l = 2  e_4 = 6.24160274
l = 2  e_5 = 20.0638499
l = 2  e_6 = 78.7485386
l = 3  e_0 = 0.297794538
l = 3  e_1 = 0.899813549
l = 3  e_2 = 2.34729975
l = 3  e_3 = 6.44097036
l = 3  e_4 = 25.2181713
l = 4  e_0 = 0.898082039
l = 4  e_1 = 2.46626828
l = 4  e_2 = 6.11407704
l = 0  occ = 2 + 0
l = 1  occ = 0 + 0.6667
l = 2  occ = 0 + 0
l = 3  occ = 0 + 0
E1 = -49.867238568574244  E_coul = 12.523362682060807
cycle= 11 E= -37.3438758865134  delta_E= 2.84e-14  |g|=    0  |ddm|= 5.44e-09
    CPU time for cycle= 11      0.17 sec, wall time      0.05 sec
diis-norm(errvec)=4.54563e-09
Linear dependence found in DIIS error vectors.
diis-c [-2.57655098e-16  2.49861834e-01  2.52102792e-01  2.52896312e-01
 -1.48553940e-06  3.96073888e-05 -3.05808148e-04  1.55767869e-03
  2.43849069e-01]
l = 0  e_0 = -11.4891526
l = 0  e_1 = -0.787893244
l = 0  e_2 = 0.0232602005
l = 0  e_3 = 0.134106471
l = 0  e_4 = 0.539978267
l = 0  e_5 = 1.99323211
l = 0  e_6 = 7.65640122
l = 0  e_7 = 27.1429423
l = 0  e_8 = 91.4770986
l = 0  e_9 = 381.035038
l = 1  e_0 = -0.133210778
l = 1  e_1 = 0.0247857498
l = 1  e_2 = 0.118386559
l = 1  e_3 = 0.455388923
l = 1  e_4 = 1.53829018
l = 1  e_5 = 4.93269905
l = 1  e_6 = 15.375129
l = 1  e_7 = 49.8061072
l = 1  e_8 = 167.088723
l = 2  e_0 = 0.0825490349
l = 2  e_1 = 0.285143716
l = 2  e_2 = 0.801811638
l = 2  e_3 = 2.18444304
l = 2  e_4 = 6.24160275
l = 2  e_5 = 20.0638499
l = 2  e_6 = 78.7485386
l = 3  e_0 = 0.297794538
l = 3  e_1 = 0.899813551
l = 3  e_2 = 2.34729975
l = 3  e_3 = 6.44097036
l = 3  e_4 = 25.2181713
l = 4  e_0 = 0.89808204
l = 4  e_1 = 2.46626828
l = 4  e_2 = 6.11407705
l = 0  occ = 2 + 0
l = 1  occ = 0 + 0.6667
l = 2  occ = 0 + 0
l = 3  occ = 0 + 0
E1 = -49.86723856275638  E_coul = 12.523362676242915
cycle= 12 E= -37.3438758865135  delta_E= -2.13e-14  |g|=    0  |ddm|= 5.66e-09
    CPU time for cycle= 12      0.16 sec, wall time      0.04 sec
diis-norm(errvec)=7.43595e-10
Linear dependence found in DIIS error vectors.
diis-c [ 2.72310128e-17  2.02969081e-01  2.04567804e-01  2.04838691e-01
  2.06691341e-01  1.02556974e-05  5.30412624e-04 -1.87750783e-02
  1.99167492e-01]
l = 0  e_0 = -11.4891526
l = 0  e_1 = -0.787893243
l = 0  e_2 = 0.0232602006
l = 0  e_3 = 0.134106471
l = 0  e_4 = 0.539978268
l = 0  e_5 = 1.99323211
l = 0  e_6 = 7.65640122
l = 0  e_7 = 27.1429423
l = 0  e_8 = 91.4770986
l = 0  e_9 = 381.035038
l = 1  e_0 = -0.133210777
l = 1  e_1 = 0.0247857498
l = 1  e_2 = 0.118386559
l = 1  e_3 = 0.455388923
l = 1  e_4 = 1.53829018
l = 1  e_5 = 4.93269906
l = 1  e_6 = 15.375129
l = 1  e_7 = 49.8061072
l = 1  e_8 = 167.088723
l = 2  e_0 = 0.0825490349
l = 2  e_1 = 0.285143716
l = 2  e_2 = 0.801811638
l = 2  e_3 = 2.18444304
l = 2  e_4 = 6.24160275
l = 2  e_5 = 20.0638499
l = 2  e_6 = 78.7485386
l = 3  e_0 = 0.297794538
l = 3  e_1 = 0.899813551
l = 3  e_2 = 2.34729975
l = 3  e_3 = 6.44097037
l = 3  e_4 = 25.2181713
l = 4  e_0 = 0.89808204
l = 4  e_1 = 2.46626828
l = 4  e_2 = 6.11407705
l = 0  occ = 2 + 0
l = 1  occ = 0 + 0.6667
l = 2  occ = 0 + 0
l = 3  occ = 0 + 0
E1 = -49.867238559563674  E_coul = 12.523362673050283
cycle= 13 E= -37.3438758865134  delta_E= 7.11e-14  |g|=    0  |ddm|= 2.35e-09
    CPU time for cycle= 13      0.16 sec, wall time      0.04 sec
diis-norm(errvec)=1.30881e-09
Linear dependence found in DIIS error vectors.
diis-c [ 5.70057723e-17  1.68581950e-01  1.69903880e-01  1.70000100e-01
  1.72159117e-01  1.72510098e-01  6.53634327e-04 -1.85875500e-02
  1.64778771e-01]
l = 0  e_0 = -11.4891526
l = 0  e_1 = -0.787893243
l = 0  e_2 = 0.0232602006
l = 0  e_3 = 0.134106471
l = 0  e_4 = 0.539978268
l = 0  e_5 = 1.99323211
l = 0  e_6 = 7.65640122
l = 0  e_7 = 27.1429423
l = 0  e_8 = 91.4770986
l = 0  e_9 = 381.035038
l = 1  e_0 = -0.133210777
l = 1  e_1 = 0.0247857498
l = 1  e_2 = 0.118386559
l = 1  e_3 = 0.455388923
l = 1  e_4 = 1.53829018
l = 1  e_5 = 4.93269906
l = 1  e_6 = 15.375129
l = 1  e_7 = 49.8061072
l = 1  e_8 = 167.088723
l = 2  e_0 = 0.0825490349
l = 2  e_1 = 0.285143716
l = 2  e_2 = 0.801811638
l = 2  e_3 = 2.18444304
l = 2  e_4 = 6.24160275
l = 2  e_5 = 20.0638499
l = 2  e_6 = 78.7485386
l = 3  e_0 = 0.297794538
l = 3  e_1 = 0.899813551
l = 3  e_2 = 2.34729975
l = 3  e_3 = 6.44097037
l = 3  e_4 = 25.2181713
l = 4  e_0 = 0.89808204
l = 4  e_1 = 2.46626828
l = 4  e_2 = 6.11407705
l = 0  occ = 2 + 0
l = 1  occ = 0 + 0.6667
l = 2  occ = 0 + 0
l = 3  occ = 0 + 0
E1 = -49.86723855886615  E_coul = 12.523362672352793
cycle= 14 E= -37.3438758865134  delta_E= 2.84e-14  |g|=    0  |ddm|= 2.56e-10
    CPU time for cycle= 14      0.16 sec, wall time      0.04 sec
diis-norm(errvec)=1.58667e-09
Linear dependence found in DIIS error vectors.
diis-c [ 2.83134908e-16  1.42791968e-01  1.43438336e-01  1.43941927e-01
  1.43408020e-01  1.43020061e-01  1.42926804e-01 -1.91347744e-03
  1.42386362e-01]
l = 0  e_0 = -11.4891526
l = 0  e_1 = -0.787893244
l = 0  e_2 = 0.0232602005
l = 0  e_3 = 0.134106471
l = 0  e_4 = 0.539978267
l = 0  e_5 = 1.99323211
l = 0  e_6 = 7.65640122
l = 0  e_7 = 27.1429423
l = 0  e_8 = 91.4770986
l = 0  e_9 = 381.035038
l = 1  e_0 = -0.133210777
l = 1  e_1 = 0.0247857498
l = 1  e_2 = 0.118386559
l = 1  e_3 = 0.455388923
l = 1  e_4 = 1.53829018
l = 1  e_5 = 4.93269906
l = 1  e_6 = 15.375129
l = 1  e_7 = 49.8061072
l = 1  e_8 = 167.088723
l = 2  e_0 = 0.0825490349
l = 2  e_1 = 0.285143716
l = 2  e_2 = 0.801811638
l = 2  e_3 = 2.18444304
l = 2  e_4 = 6.24160275
l = 2  e_5 = 20.0638499
l = 2  e_6 = 78.7485386
l = 3  e_0 = 0.297794538
l = 3  e_1 = 0.899813551
l = 3  e_2 = 2.34729975
l = 3  e_3 = 6.44097037
l = 3  e_4 = 25.2181713
l = 4  e_0 = 0.89808204
l = 4  e_1 = 2.46626828
l = 4  e_2 = 6.11407705
l = 0  occ = 2 + 0
l = 1  occ = 0 + 0.6667
l = 2  occ = 0 + 0
l = 3  occ = 0 + 0
E1 = -49.86723856091388  E_coul = 12.523362674400476
cycle= 15 E= -37.3438758865134  delta_E= -4.97e-14  |g|=    0  |ddm|= 2.06e-09
    CPU time for cycle= 15      0.16 sec, wall time      0.04 sec
diis-norm(errvec)=5.28497e-10
Linear dependence found in DIIS error vectors.
diis-c [-2.89052492e-16  1.25000000e-01  1.25000000e-01  1.25000000e-01
  1.25000000e-01  1.25000000e-01  1.25000000e-01  1.25000000e-01
  1.25000000e-01]
l = 0  e_0 = -11.4891526
l = 0  e_1 = -0.787893244
l = 0  e_2 = 0.0232602006
l = 0  e_3 = 0.134106471
l = 0  e_4 = 0.539978267
l = 0  e_5 = 1.99323211
l = 0  e_6 = 7.65640122
l = 0  e_7 = 27.1429423
l = 0  e_8 = 91.4770986
l = 0  e_9 = 381.035038
l = 1  e_0 = -0.133210778
l = 1  e_1 = 0.0247857498
l = 1  e_2 = 0.118386559
l = 1  e_3 = 0.455388923
l = 1  e_4 = 1.53829018
l = 1  e_5 = 4.93269905
l = 1  e_6 = 15.375129
l = 1  e_7 = 49.8061072
l = 1  e_8 = 167.088723
l = 2  e_0 = 0.0825490349
l = 2  e_1 = 0.285143716
l = 2  e_2 = 0.801811638
l = 2  e_3 = 2.18444304
l = 2  e_4 = 6.24160275
l = 2  e_5 = 20.0638499
l = 2  e_6 = 78.7485386
l = 3  e_0 = 0.297794538
l = 3  e_1 = 0.899813551
l = 3  e_2 = 2.34729975
l = 3  e_3 = 6.44097037
l = 3  e_4 = 25.2181713
l = 4  e_0 = 0.89808204
l = 4  e_1 = 2.46626828
l = 4  e_2 = 6.11407705
l = 0  occ = 2 + 0
l = 1  occ = 0 + 0.6667
l = 2  occ = 0 + 0
l = 3  occ = 0 + 0
E1 = -49.86723856150748  E_coul = 12.523362674994086
cycle= 16 E= -37.3438758865134  delta_E= 2.13e-14  |g|=    0  |ddm|= 2.61e-10
    CPU time for cycle= 16      0.16 sec, wall time      0.04 sec
diis-norm(errvec)=3.9349e-10
Linear dependence found in DIIS error vectors.
diis-c [-2.89052492e-16  1.25000000e-01  1.25000000e-01  1.25000000e-01
  1.25000000e-01  1.25000000e-01  1.25000000e-01  1.25000000e-01
  1.25000000e-01]
l = 0  e_0 = -11.4891526
l = 0  e_1 = -0.787893244
l = 0  e_2 = 0.0232602006
l = 0  e_3 = 0.134106471
l = 0  e_4 = 0.539978267
l = 0  e_5 = 1.99323211
l = 0  e_6 = 7.65640122
l = 0  e_7 = 27.1429423
l = 0  e_8 = 91.4770986
l = 0  e_9 = 381.035038
l = 1  e_0 = -0.133210778
l = 1  e_1 = 0.0247857498
l = 1  e_2 = 0.118386559
l = 1  e_3 = 0.455388923
l = 1  e_4 = 1.53829018
l = 1  e_5 = 4.93269905
l = 1  e_6 = 15.375129
l = 1  e_7 = 49.8061072
l = 1  e_8 = 167.088723
l = 2  e_0 = 0.0825490349
l = 2  e_1 = 0.285143716
l = 2  e_2 = 0.801811638
l = 2  e_3 = 2.18444304
l = 2  e_4 = 6.24160275
l = 2  e_5 = 20.0638499
l = 2  e_6 = 78.7485386
l = 3  e_0 = 0.297794538
l = 3  e_1 = 0.899813551
l = 3  e_2 = 2.34729975
l = 3  e_3 = 6.44097037
l = 3  e_4 = 25.2181713
l = 4  e_0 = 0.89808204
l = 4  e_1 = 2.46626828
l = 4  e_2 = 6.11407705
l = 0  occ = 2 + 0
l = 1  occ = 0 + 0.6667
l = 2  occ = 0 + 0
l = 3  occ = 0 + 0
E1 = -49.867238561570225  E_coul = 12.52336267505675
cycle= 17 E= -37.3438758865135  delta_E= -8.53e-14  |g|=    0  |ddm|= 2.6e-10
    CPU time for cycle= 17      0.16 sec, wall time      0.04 sec
diis-norm(errvec)=2.51486e-10
Linear dependence found in DIIS error vectors.
diis-c [-2.89052492e-16  1.25000000e-01  1.25000000e-01  1.25000000e-01
  1.25000000e-01  1.25000000e-01  1.25000000e-01  1.25000000e-01
  1.25000000e-01]
l = 0  e_0 = -11.4891526
l = 0  e_1 = -0.787893244
l = 0  e_2 = 0.0232602006
l = 0  e_3 = 0.134106471
l = 0  e_4 = 0.539978267
l = 0  e_5 = 1.99323211
l = 0  e_6 = 7.65640122
l = 0  e_7 = 27.1429423
l = 0  e_8 = 91.4770986
l = 0  e_9 = 381.035038
l = 1  e_0 = -0.133210778
l = 1  e_1 = 0.0247857498
l = 1  e_2 = 0.118386559
l = 1  e_3 = 0.455388923
l = 1  e_4 = 1.53829018
l = 1  e_5 = 4.93269905
l = 1  e_6 = 15.375129
l = 1  e_7 = 49.8061072
l = 1  e_8 = 167.088723
l = 2  e_0 = 0.0825490349
l = 2  e_1 = 0.285143716
l = 2  e_2 = 0.801811638
l = 2  e_3 = 2.18444304
l = 2  e_4 = 6.24160275
l = 2  e_5 = 20.0638499
l = 2  e_6 = 78.7485386
l = 3  e_0 = 0.297794538
l = 3  e_1 = 0.899813551
l = 3  e_2 = 2.34729975
l = 3  e_3 = 6.44097037
l = 3  e_4 = 25.2181713
l = 4  e_0 = 0.89808204
l = 4  e_1 = 2.46626828
l = 4  e_2 = 6.11407705
l = 0  occ = 2 + 0
l = 1  occ = 0 + 0.6667
l = 2  occ = 0 + 0
l = 3  occ = 0 + 0
E1 = -49.86723856157251  E_coul = 12.523362675059014
cycle= 18 E= -37.3438758865135  delta_E= -2.84e-14  |g|=    0  |ddm|= 1.35e-10
    CPU time for cycle= 18      0.16 sec, wall time      0.04 sec
diis-norm(errvec)=1.85978e-10
Linear dependence found in DIIS error vectors.
diis-c [-2.89052492e-16  1.25000000e-01  1.25000000e-01  1.25000000e-01
  1.25000000e-01  1.25000000e-01  1.25000000e-01  1.25000000e-01
  1.25000000e-01]
l = 0  e_0 = -11.4891526
l = 0  e_1 = -0.787893244
l = 0  e_2 = 0.0232602006
l = 0  e_3 = 0.134106471
l = 0  e_4 = 0.539978267
l = 0  e_5 = 1.99323211
l = 0  e_6 = 7.65640122
l = 0  e_7 = 27.1429423
l = 0  e_8 = 91.4770986
l = 0  e_9 = 381.035038
l = 1  e_0 = -0.133210778
l = 1  e_1 = 0.0247857498
l = 1  e_2 = 0.118386559
l = 1  e_3 = 0.455388923
l = 1  e_4 = 1.53829018
l = 1  e_5 = 4.93269905
l = 1  e_6 = 15.375129
l = 1  e_7 = 49.8061072
l = 1  e_8 = 167.088723
l = 2  e_0 = 0.0825490349
l = 2  e_1 = 0.285143716
l = 2  e_2 = 0.801811638
l = 2  e_3 = 2.18444304
l = 2  e_4 = 6.24160275
l = 2  e_5 = 20.0638499
l = 2  e_6 = 78.7485386
l = 3  e_0 = 0.297794538
l = 3  e_1 = 0.899813551
l = 3  e_2 = 2.34729975
l = 3  e_3 = 6.44097036
l = 3  e_4 = 25.2181713
l = 4  e_0 = 0.89808204
l = 4  e_1 = 2.46626828
l = 4  e_2 = 6.11407705
l = 0  occ = 2 + 0
l = 1  occ = 0 + 0.6667
l = 2  occ = 0 + 0
l = 3  occ = 0 + 0
E1 = -49.86723856180499  E_coul = 12.523362675291512
cycle= 19 E= -37.3438758865135  delta_E= 2.84e-14  |g|=    0  |ddm|= 9.16e-11
    CPU time for cycle= 19      0.16 sec, wall time      0.04 sec
l = 0  e_0 = -11.4891526
l = 0  e_1 = -0.787893244
l = 0  e_2 = 0.0232602006
l = 0  e_3 = 0.134106471
l = 0  e_4 = 0.539978267
l = 0  e_5 = 1.99323211
l = 0  e_6 = 7.65640122
l = 0  e_7 = 27.1429423
l = 0  e_8 = 91.4770986
l = 0  e_9 = 381.035038
l = 1  e_0 = -0.133210778
l = 1  e_1 = 0.0247857498
l = 1  e_2 = 0.118386559
l = 1  e_3 = 0.455388923
l = 1  e_4 = 1.53829018
l = 1  e_5 = 4.93269905
l = 1  e_6 = 15.375129
l = 1  e_7 = 49.8061072
l = 1  e_8 = 167.088723
l = 2  e_0 = 0.0825490349
l = 2  e_1 = 0.285143716
l = 2  e_2 = 0.801811638
l = 2  e_3 = 2.18444304
l = 2  e_4 = 6.24160275
l = 2  e_5 = 20.0638499
l = 2  e_6 = 78.7485386
l = 3  e_0 = 0.297794538
l = 3  e_1 = 0.899813551
l = 3  e_2 = 2.34729975
l = 3  e_3 = 6.44097036
l = 3  e_4 = 25.2181713
l = 4  e_0 = 0.89808204
l = 4  e_1 = 2.46626828
l = 4  e_2 = 6.11407705
l = 0  occ = 2 + 0
l = 1  occ = 0 + 0.6667
l = 2  occ = 0 + 0
l = 3  occ = 0 + 0
E1 = -49.86723856189775  E_coul = 12.523362675384316
Extra cycle  E= -37.3438758865134  delta_E= 4.26e-14  |g|=    0  |ddm|= 9.16e-11
    CPU time for scf_cycle      4.47 sec, wall time      1.16 sec
    CPU time for SCF      4.47 sec, wall time      1.16 sec
Atomic HF for atom  C  converged. SCF energy = -37.3438758865134

Atom C, E = -37.3438758865
Nelec from initial guess = (np.float64(3.0), np.float64(3.0))
E1 = -49.86723856189775  Ecoul = 12.523362675384313
init E= -37.3438758865134
    CPU time for initialize scf      5.82 sec, wall time      1.51 sec
alpha HOMO (B3u) = -0.133210777566662  LUMO (B1u) = -0.133210777566663
alpha irrep_nelec = [2, 0, 0, 0, 0, 0, 0, 1]
beta  irrep_nelec = [2, 0, 0, 0, 0, 0, 0, 0]
alpha-Ag nocc = 2  HOMO = -0.787893243972501  LUMO = 0.0232602005577556
   mo_energy = [-1.14891526e+01 -7.87893244e-01  2.32602006e-02  8.25490349e-02
  8.25490349e-02  1.34106471e-01  2.85143716e-01  2.85143716e-01
  5.39978267e-01  8.01811638e-01  8.01811638e-01  8.98082040e-01
  8.98082040e-01  8.98082040e-01  1.99323211e+00  2.18444304e+00
  2.18444304e+00  2.46626828e+00  2.46626828e+00  2.46626828e+00
  6.11407705e+00  6.11407705e+00  6.11407705e+00  6.24160275e+00
  6.24160275e+00  7.65640122e+00  2.00638499e+01  2.00638499e+01
  2.71429423e+01  7.87485386e+01  7.87485386e+01  9.14770986e+01
  3.81035038e+02]
alpha-B1g nocc = 0
   mo_energy = [ 0.08254903  0.28514372  0.80181164  0.89808204  0.89808204  2.18444304
  2.46626828  2.46626828  6.11407705  6.11407705  6.24160275 20.06384988
 78.74853859]
alpha-B2g nocc = 0
   mo_energy = [ 0.08254903  0.28514372  0.80181164  0.89808204  0.89808204  2.18444304
  2.46626828  2.46626828  6.11407705  6.11407705  6.24160275 20.06384988
 78.74853859]
alpha-B3g nocc = 0
   mo_energy = [ 0.08254903  0.28514372  0.80181164  0.89808204  0.89808204  2.18444304
  2.46626828  2.46626828  6.11407705  6.11407705  6.24160275 20.06384988
 78.74853859]
alpha-Au nocc = 0
   mo_energy = [ 0.29779454  0.89981355  2.34729975  6.44097036 25.21817131]
alpha-B1u nocc = 0
   mo_energy = [-1.33210778e-01  2.47857498e-02  1.18386559e-01  2.97794538e-01
  2.97794538e-01  4.55388923e-01  8.99813551e-01  8.99813551e-01
  1.53829018e+00  2.34729975e+00  2.34729975e+00  4.93269905e+00
  6.44097036e+00  6.44097036e+00  1.53751290e+01  2.52181713e+01
  2.52181713e+01  4.98061072e+01  1.67088723e+02]
alpha-B2u nocc = 0
   mo_energy = [-1.33210778e-01  2.47857498e-02  1.18386559e-01  2.97794538e-01
  2.97794538e-01  4.55388923e-01  8.99813551e-01  8.99813551e-01
  1.53829018e+00  2.34729975e+00  2.34729975e+00  4.93269905e+00
  6.44097036e+00  6.44097036e+00  1.53751290e+01  2.52181713e+01
  2.52181713e+01  4.98061072e+01  1.67088723e+02]
alpha-B3u nocc = 1  HOMO = -0.133210777566662  LUMO = 0.0247857498013272

WARN: alpha-B3u HOMO -0.133210777566662 > system LUMO -0.133210777566663

   mo_energy = [-1.33210778e-01  2.47857498e-02  1.18386559e-01  2.97794538e-01
  2.97794538e-01  4.55388923e-01  8.99813551e-01  8.99813551e-01
  1.53829018e+00  2.34729975e+00  2.34729975e+00  4.93269905e+00
  6.44097036e+00  6.44097036e+00  1.53751290e+01  2.52181713e+01
  2.52181713e+01  4.98061072e+01  1.67088723e+02]
beta-Ag nocc = 2  HOMO = -0.787893243972501  LUMO = 0.0232602005577556
   mo_energy = [-1.14891526e+01 -7.87893244e-01  2.32602006e-02  8.25490349e-02
  8.25490349e-02  1.34106471e-01  2.85143716e-01  2.85143716e-01
  5.39978267e-01  8.01811638e-01  8.01811638e-01  8.98082040e-01
  8.98082040e-01  8.98082040e-01  1.99323211e+00  2.18444304e+00
  2.18444304e+00  2.46626828e+00  2.46626828e+00  2.46626828e+00
  6.11407705e+00  6.11407705e+00  6.11407705e+00  6.24160275e+00
  6.24160275e+00  7.65640122e+00  2.00638499e+01  2.00638499e+01
  2.71429423e+01  7.87485386e+01  7.87485386e+01  9.14770986e+01
  3.81035038e+02]
beta-B1g nocc = 0
   mo_energy = [ 0.08254903  0.28514372  0.80181164  0.89808204  0.89808204  2.18444304
  2.46626828  2.46626828  6.11407705  6.11407705  6.24160275 20.06384988
 78.74853859]
beta-B2g nocc = 0
   mo_energy = [ 0.08254903  0.28514372  0.80181164  0.89808204  0.89808204  2.18444304
  2.46626828  2.46626828  6.11407705  6.11407705  6.24160275 20.06384988
 78.74853859]
beta-B3g nocc = 0
   mo_energy = [ 0.08254903  0.28514372  0.80181164  0.89808204  0.89808204  2.18444304
  2.46626828  2.46626828  6.11407705  6.11407705  6.24160275 20.06384988
 78.74853859]
beta-Au nocc = 0
   mo_energy = [ 0.29779454  0.89981355  2.34729975  6.44097036 25.21817131]
beta-B1u nocc = 0
   mo_energy = [-1.33210778e-01  2.47857498e-02  1.18386559e-01  2.97794538e-01
  2.97794538e-01  4.55388923e-01  8.99813551e-01  8.99813551e-01
  1.53829018e+00  2.34729975e+00  2.34729975e+00  4.93269905e+00
  6.44097036e+00  6.44097036e+00  1.53751290e+01  2.52181713e+01
  2.52181713e+01  4.98061072e+01  1.67088723e+02]
beta-B2u nocc = 0
   mo_energy = [-1.33210778e-01  2.47857498e-02  1.18386559e-01  2.97794538e-01
  2.97794538e-01  4.55388923e-01  8.99813551e-01  8.99813551e-01
  1.53829018e+00  2.34729975e+00  2.34729975e+00  4.93269905e+00
  6.44097036e+00  6.44097036e+00  1.53751290e+01  2.52181713e+01
  2.52181713e+01  4.98061072e+01  1.67088723e+02]
beta-B3u nocc = 0
   mo_energy = [-1.33210778e-01  2.47857498e-02  1.18386559e-01  2.97794538e-01
  2.97794538e-01  4.55388923e-01  8.99813551e-01  8.99813551e-01
  1.53829018e+00  2.34729975e+00  2.34729975e+00  4.93269905e+00
  6.44097036e+00  6.44097036e+00  1.53751290e+01  2.52181713e+01
  2.52181713e+01  4.98061072e+01  1.67088723e+02]
multiplicity <S^2> = 0.75  2S+1 = 2
E1 = -46.770055796917035  Ecoul = 9.55939068797489
cycle= 1 E= -37.2106651089421  delta_E= 0.133  |g|= 0.261  |ddm|= 0.471
    CPU time for cycle= 1      0.34 sec, wall time      0.09 sec
diis-norm(errvec)=0.369462
diis-c [-0.13650189  1.        ]
alpha HOMO (B3u) = -0.905869870671139  LUMO (B2u) = -0.46370269423963
alpha irrep_nelec = [2, 0, 0, 0, 0, 0, 0, 1]
beta  irrep_nelec = [2, 0, 0, 0, 0, 0, 0, 0]
alpha-Ag nocc = 2  HOMO = -1.30324091853704  LUMO = -0.142489321189053
   mo_energy = [-1.21607388e+01 -1.30324092e+00 -1.42489321e-01 -5.23594575e-02
 -5.18881715e-02 -3.96141335e-02  6.37952782e-02  6.70735627e-02
  2.51100433e-01  4.59019496e-01  4.66867135e-01  6.40323579e-01
  6.50882943e-01  6.54430459e-01  1.54858972e+00  1.72380218e+00
  1.72416295e+00  2.08627988e+00  2.10683151e+00  2.11372355e+00
  5.60232794e+00  5.63213120e+00  5.64203004e+00  5.66779721e+00
  5.68451165e+00  7.07731457e+00  1.94154066e+01  1.94377161e+01
  2.65001427e+01  7.80728996e+01  7.80866298e+01  9.08100828e+01
  3.80361415e+02]
alpha-B1g nocc = 0
   mo_energy = [-5.19161691e-02  6.44465803e-02  4.60497233e-01  6.46465944e-01
  6.53542458e-01  1.72369146e+00  2.09824535e+00  2.11199861e+00
  5.61974608e+00  5.63955542e+00  5.68026607e+00  1.94321318e+01
  7.80831993e+01]
alpha-B2g nocc = 0
   mo_energy = [-5.19161691e-02  6.44465803e-02  4.60497233e-01  6.46465944e-01
  6.53542458e-01  1.72369146e+00  2.09824535e+00  2.11199861e+00
  5.61974608e+00  5.63955542e+00  5.68026607e+00  1.94321318e+01
  7.80831993e+01]
alpha-B3g nocc = 0
   mo_energy = [-5.23594575e-02  6.70735627e-02  4.66867135e-01  6.40323579e-01
  6.50882943e-01  1.72380218e+00  2.08627988e+00  2.10683151e+00
  5.60232794e+00  5.63213120e+00  5.66779721e+00  1.94154066e+01
  7.80728996e+01]
alpha-Au nocc = 0
   mo_energy = [ 0.11595302  0.61554153  1.93802387  5.90201238 24.57613418]
alpha-B1u nocc = 0
   mo_energy = [-4.63702694e-01 -9.33638588e-02 -3.56001831e-02  1.12638714e-01
  1.17974155e-01  1.70451019e-01  6.08880943e-01  6.19586338e-01
  1.10165514e+00  1.92649828e+00  1.94501160e+00  4.37284382e+00
  5.88506435e+00  5.91224692e+00  1.47417762e+01  2.45600289e+01
  2.45858050e+01  4.91395458e+01  1.66412942e+02]
alpha-B2u nocc = 0
   mo_energy = [-4.63702694e-01 -9.33638588e-02 -3.56001831e-02  1.12638714e-01
  1.17974155e-01  1.70451019e-01  6.08880943e-01  6.19586338e-01
  1.10165514e+00  1.92649828e+00  1.94501160e+00  4.37284382e+00
  5.88506435e+00  5.91224692e+00  1.47417762e+01  2.45600289e+01
  2.45858050e+01  4.91395458e+01  1.66412942e+02]
alpha-B3u nocc = 1  HOMO = -0.905869870671139  LUMO = -0.0992384375899318
   mo_energy = [-9.05869871e-01 -9.92384376e-02 -3.82286008e-02  1.15953024e-01
  1.18653488e-01  1.60272967e-01  6.15541534e-01  6.20940599e-01
  1.09349731e+00  1.93802387e+00  1.94735286e+00  4.38317113e+00
  5.90201238e+00  5.91567032e+00  1.47628828e+01  2.45761342e+01
  2.45890299e+01  4.91565251e+01  1.66421730e+02]
beta-Ag nocc = 2  HOMO = -1.20201131394729  LUMO = -0.133397324301006
   mo_energy = [-1.21449342e+01 -1.20201131e+00 -1.33397324e-01 -5.18196816e-02
 -4.65752542e-02 -3.52398446e-02  6.91515808e-02  8.36657502e-02
  2.63849722e-01  4.72145489e-01  5.04676346e-01  6.40958000e-01
  6.55296227e-01  6.60222613e-01  1.56913018e+00  1.73105470e+00
  1.77969902e+00  2.08797921e+00  2.11818898e+00  2.12841849e+00
  5.60490456e+00  5.64928557e+00  5.66422540e+00  5.67389669e+00
  5.72630881e+00  7.09367101e+00  1.94186794e+01  1.94578995e+01
  2.65073218e+01  7.80738386e+01  7.80920548e+01  9.08123229e+01
  3.80361999e+02]
beta-B1g nocc = 0
   mo_energy = [-4.78664308e-02  7.97506209e-02  4.96026349e-01  6.49259467e-01
  6.58980341e-01  1.76712074e+00  2.10552026e+00  2.12585255e+00
  5.63071921e+00  5.66048356e+00  5.71304558e+00  1.94480785e+01
  7.80875039e+01]
beta-B2g nocc = 0
   mo_energy = [-4.78664308e-02  7.97506209e-02  4.96026349e-01  6.49259467e-01
  6.58980341e-01  1.76712074e+00  2.10552026e+00  2.12585255e+00
  5.63071921e+00  5.66048356e+00  5.71304558e+00  1.94480785e+01
  7.80875039e+01]
beta-B3g nocc = 0
   mo_energy = [-5.18196816e-02  6.91515808e-02  4.72145489e-01  6.40958000e-01
  6.55296227e-01  1.73105470e+00  2.08797921e+00  2.11818898e+00
  5.60490456e+00  5.64928557e+00  5.67389669e+00  1.94186794e+01
  7.80738386e+01]
beta-Au nocc = 0
   mo_energy = [ 0.11800765  0.62433124  1.95558675  5.92211293 24.58704797]
beta-B1u nocc = 0
   mo_energy = [-4.38270356e-01 -9.17718193e-02 -3.44445045e-02  1.13037093e-01
  1.20995313e-01  1.75834904e-01  6.10635677e-01  6.32744432e-01
  1.11106624e+00  1.93012267e+00  1.97123552e+00  4.38151704e+00
  5.88933311e+00  5.94202430e+00  1.47469605e+01  2.45623762e+01
  2.46018729e+01  4.91416194e+01  1.66413531e+02]
beta-B2u nocc = 0
   mo_energy = [-4.38270356e-01 -9.17718193e-02 -3.44445045e-02  1.13037093e-01
  1.20995313e-01  1.75834904e-01  6.10635677e-01  6.32744432e-01
  1.11106624e+00  1.93012267e+00  1.97123552e+00  4.38151704e+00
  5.88933311e+00  5.94202430e+00  1.47469605e+01  2.45623762e+01
  2.46018729e+01  4.91416194e+01  1.66413531e+02]
beta-B3u nocc = 0
   mo_energy = [-3.86988847e-01 -8.50702955e-02 -2.90007622e-02  1.18007651e-01
  1.22018298e-01  1.97321984e-01  6.24331244e-01  6.35594470e-01
  1.15181026e+00  1.95558675e+00  1.97652982e+00  4.42935654e+00
  5.92211293e+00  5.94870883e+00  1.47867275e+01  2.45870480e+01
  2.46068183e+01  4.91652460e+01  1.66424036e+02]
multiplicity <S^2> = 0.7520572  2S+1 = 2.0020561
E1 = -47.48160225661488  Ecoul = 10.191942172886453
cycle= 2 E= -37.2896600837284  delta_E= -0.079  |g|= 0.077  |ddm|= 0.535
    CPU time for cycle= 2      0.34 sec, wall time      0.09 sec
diis-norm(errvec)=0.108938
diis-c [-0.01031006 -0.1249765   1.1249765 ]
alpha HOMO (B3u) = -0.902070855896504  LUMO (B2u) = -0.365552743962923
alpha irrep_nelec = [2, 0, 0, 0, 0, 0, 0, 1]
beta  irrep_nelec = [2, 0, 0, 0, 0, 0, 0, 0]
alpha-Ag nocc = 2  HOMO = -1.22566453385156  LUMO = -0.130636391156053
   mo_energy = [-1.19119553e+01 -1.22566453e+00 -1.30636391e-01 -4.96465788e-02
 -4.77991006e-02 -3.31430356e-02  7.77817088e-02  7.89215898e-02
  2.75680290e-01  4.94091763e-01  5.03601463e-01  6.50185626e-01
  6.58735205e-01  6.61608263e-01  1.62499612e+00  1.79642696e+00
  1.80768199e+00  2.12213840e+00  2.14196595e+00  2.14861736e+00
  5.69468877e+00  5.72818596e+00  5.73938369e+00  5.81677138e+00
  5.82957306e+00  7.24150688e+00  1.96273457e+01  1.96565288e+01
  2.67273852e+01  7.83279351e+01  7.83484177e+01  9.10725961e+01
  3.80645603e+02]
alpha-B1g nocc = 0
   mo_energy = [-4.83054295e-02  7.83874948e-02  4.95570061e-01  6.55156720e-01
  6.60889124e-01  1.79808887e+00  2.13368095e+00  2.14695255e+00
  5.71420730e+00  5.73658318e+00  5.82620466e+00  1.96492181e+01
  7.83433014e+01]
alpha-B2g nocc = 0
   mo_energy = [-4.83054295e-02  7.83874948e-02  4.95570061e-01  6.55156720e-01
  6.60889124e-01  1.79808887e+00  2.13368095e+00  2.14695255e+00
  5.71420730e+00  5.73658318e+00  5.82620466e+00  1.96492181e+01
  7.83433014e+01]
alpha-B3g nocc = 0
   mo_energy = [-4.96465788e-02  7.77817088e-02  5.03601463e-01  6.50185626e-01
  6.58735205e-01  1.80768199e+00  2.12213840e+00  2.14196595e+00
  5.69468877e+00  5.72818596e+00  5.81677138e+00  1.96273457e+01
  7.83279351e+01]
alpha-Au nocc = 0
   mo_energy = [ 0.11911052  0.63313943  1.99323011  6.02959843 24.7944614 ]
alpha-B1u nocc = 0
   mo_energy = [-3.65552744e-01 -8.68332059e-02 -2.98603161e-02  1.16489567e-01
  1.20685596e-01  2.01314077e-01  6.26631158e-01  6.37083672e-01
  1.18630268e+00  1.98224919e+00  1.99989595e+00  4.52302698e+00
  6.01101580e+00  6.04083816e+00  1.49479059e+01  2.47721214e+01
  2.48078830e+01  4.93858707e+01  1.66685318e+02]
alpha-B2u nocc = 0
   mo_energy = [-3.65552744e-01 -8.68332059e-02 -2.98603161e-02  1.16489567e-01
  1.20685596e-01  2.01314077e-01  6.26631158e-01  6.37083672e-01
  1.18630268e+00  1.98224919e+00  1.99989595e+00  4.52302698e+00
  6.01101580e+00  6.04083816e+00  1.49479059e+01  2.47721214e+01
  2.48078830e+01  4.93858707e+01  1.66685318e+02]
alpha-B3u nocc = 1  HOMO = -0.902070855896504  LUMO = -0.0900199163542663
   mo_energy = [-9.02070856e-01 -9.00199164e-02 -3.36497152e-02  1.19110523e-01
  1.21210649e-01  1.78842634e-01  6.33139432e-01  6.38400668e-01
  1.15455787e+00  1.99323011e+00  2.00212500e+00  4.52381865e+00
  6.02959843e+00  6.04460090e+00  1.49735145e+01  2.47944614e+01
  2.48123599e+01  4.94102405e+01  1.66698661e+02]
beta-Ag nocc = 2  HOMO = -1.09941482005917  LUMO = -0.127373047459989
   mo_energy = [-1.18866936e+01 -1.09941482e+00 -1.27373047e-01 -4.95448334e-02
 -4.65064668e-02 -3.01588173e-02  7.85141143e-02  8.92257954e-02
  2.88321256e-01  5.06985227e-01  5.40058697e-01  6.50312081e-01
  6.60373984e-01  6.63877822e-01  1.65288537e+00  1.81482568e+00
  1.87582639e+00  2.12283900e+00  2.15187501e+00  2.16178156e+00
  5.69652550e+00  5.75064452e+00  5.76890884e+00  5.82476705e+00
  5.89701803e+00  7.26647453e+00  1.96322227e+01  1.96902959e+01
  2.67385729e+01  7.83292642e+01  7.83575320e+01  9.10758021e+01
  3.80646166e+02]
beta-B1g nocc = 0
   mo_energy = [-4.72493485e-02  8.64142381e-02  5.31249374e-01  6.56124679e-01
  6.62988989e-01  1.85975554e+00  2.13967200e+00  2.15929003e+00
  5.72800226e+00  5.76433148e+00  5.87869549e+00  1.96757522e+01
  7.83504735e+01]
beta-B2g nocc = 0
   mo_energy = [-4.72493485e-02  8.64142381e-02  5.31249374e-01  6.56124679e-01
  6.62988989e-01  1.85975554e+00  2.13967200e+00  2.15929003e+00
  5.72800226e+00  5.76433148e+00  5.87869549e+00  1.96757522e+01
  7.83504735e+01]
beta-B3g nocc = 0
   mo_energy = [-4.95448334e-02  7.85141143e-02  5.06985227e-01  6.50312081e-01
  6.60373984e-01  1.81482568e+00  2.12283900e+00  2.15187501e+00
  5.69652550e+00  5.75064452e+00  5.82476705e+00  1.96322227e+01
  7.83292642e+01]
beta-Au nocc = 0
   mo_energy = [ 0.11953114  0.63841385  2.01239303  6.05881567 24.81242665]
beta-B1u nocc = 0
   mo_energy = [-3.41807530e-01 -8.57462056e-02 -2.87191687e-02  1.16542721e-01
  1.21329511e-01  2.06984941e-01  6.27258102e-01  6.45228191e-01
  1.19758860e+00  1.98458067e+00  2.02950046e+00  4.53478389e+00
  6.01537105e+00  6.08528368e+00  1.49555347e+01  2.47754877e+01
  2.48346360e+01  4.93888233e+01  1.66685877e+02]
beta-B2u nocc = 0
   mo_energy = [-3.41807530e-01 -8.57462056e-02 -2.87191687e-02  1.16542721e-01
  1.21329511e-01  2.06984941e-01  6.27258102e-01  6.45228191e-01
  1.19758860e+00  1.98458067e+00  2.02950046e+00  4.53478389e+00
  6.01537105e+00  6.08528368e+00  1.49555347e+01  2.47754877e+01
  2.48346360e+01  4.93888233e+01  1.66685877e+02]
beta-B3u nocc = 0
   mo_energy = [-2.79353406e-01 -8.03690441e-02 -2.28190888e-02  1.19531141e-01
  1.21940665e-01  2.31834952e-01  6.38413849e-01  6.47531172e-01
  1.24788097e+00  2.01239303e+00  2.03529127e+00  4.59936017e+00
  6.05881567e+00  6.09418635e+00  1.50131597e+01  2.48124267e+01
  2.48420470e+01  4.94246866e+01  1.66702196e+02]
multiplicity <S^2> = 0.75477699  2S+1 = 2.0047713
E1 = -47.55368459624752  Ecoul = 10.257802891681319
cycle= 3 E= -37.2958817045662  delta_E= -0.00622  |g|= 0.0233  |ddm|= 0.108
    CPU time for cycle= 3      0.34 sec, wall time      0.09 sec
diis-norm(errvec)=0.033
diis-c [-3.06916851e-04  9.35338820e-03 -3.73264684e-01  1.36391130e+00]
alpha HOMO (B3u) = -0.912690909661111  LUMO (B1u) = -0.361669833889608
alpha irrep_nelec = [2, 0, 0, 0, 0, 0, 0, 1]
beta  irrep_nelec = [2, 0, 0, 0, 0, 0, 0, 0]
alpha-Ag nocc = 2  HOMO = -1.22303615949683  LUMO = -0.130107875204649
   mo_energy = [-1.19121928e+01 -1.22303616e+00 -1.30107875e-01 -4.94609568e-02
 -4.76236095e-02 -3.26955302e-02  7.85471912e-02  8.05035015e-02
  2.77114016e-01  4.96272620e-01  5.05743620e-01  6.51012847e-01
  6.59153488e-01  6.61897361e-01  1.62768515e+00  1.79634122e+00
  1.81074418e+00  2.12453885e+00  2.14407739e+00  2.15063746e+00
  5.69776413e+00  5.73156607e+00  5.74286724e+00  5.81967404e+00
  5.83122834e+00  7.24474379e+00  1.96294600e+01  1.96599295e+01
  2.67291071e+01  7.83268332e+01  7.83485443e+01  9.10698446e+01
  3.80635837e+02]
alpha-B1g nocc = 0
   mo_energy = [-4.81061970e-02  7.97688125e-02  4.97733641e-01  6.55741368e-01
  6.61210184e-01  1.79869701e+00  2.13590978e+00  2.14899527e+00
  5.71745615e+00  5.74004129e+00  5.82820925e+00  1.96522900e+01
  7.83431165e+01]
alpha-B2g nocc = 0
   mo_energy = [-4.81061970e-02  7.97688125e-02  4.97733641e-01  6.55741368e-01
  6.61210184e-01  1.79869701e+00  2.13590978e+00  2.14899527e+00
  5.71745615e+00  5.74004129e+00  5.82820925e+00  1.96522900e+01
  7.83431165e+01]
alpha-B3g nocc = 0
   mo_energy = [-4.94609568e-02  7.85471912e-02  5.05743620e-01  6.51012847e-01
  6.59153488e-01  1.81074418e+00  2.12453885e+00  2.14407739e+00
  5.69776413e+00  5.73156607e+00  5.81967404e+00  1.96294600e+01
  7.83268332e+01]
alpha-Au nocc = 0
   mo_energy = [ 0.1192536   0.63450002  1.9958222   6.03253057 24.79775411]
alpha-B1u nocc = 0
   mo_energy = [-3.61669834e-01 -8.66132863e-02 -2.96299244e-02  1.16792452e-01
  1.20731675e-01  2.02551765e-01  6.27988917e-01  6.38444036e-01
  1.18867232e+00  1.98510527e+00  2.00226758e+00  4.52541563e+00
  6.01395708e+00  6.04372094e+00  1.49499189e+01  2.47742502e+01
  2.48118845e+01  4.93856164e+01  1.66679748e+02]
alpha-B2u nocc = 0
   mo_energy = [-3.61669834e-01 -8.66132863e-02 -2.96299244e-02  1.16792452e-01
  1.20731675e-01  2.02551765e-01  6.27988917e-01  6.38444036e-01
  1.18867232e+00  1.98510527e+00  2.00226758e+00  4.52541563e+00
  6.01395708e+00  6.04372094e+00  1.49499189e+01  2.47742502e+01
  2.48118845e+01  4.93856164e+01  1.66679748e+02]
alpha-B3u nocc = 1  HOMO = -0.912690909661111  LUMO = -0.0909449901328371
   mo_energy = [-9.12690910e-01 -9.09449901e-02 -3.42010925e-02  1.19253596e-01
  1.21221644e-01  1.76981773e-01  6.34500024e-01  6.39761660e-01
  1.15206299e+00  1.99582220e+00  2.00441268e+00  4.52408451e+00
  6.03253057e+00  6.04746004e+00  1.49762867e+01  2.47977541e+01
  2.48165992e+01  4.94113520e+01  1.66693894e+02]
beta-Ag nocc = 2  HOMO = -1.08904222413267  LUMO = -0.126856646749385
   mo_energy = [-1.18843993e+01 -1.08904222e+00 -1.26856647e-01 -4.94348572e-02
 -4.66214454e-02 -2.96586442e-02  7.87923408e-02  8.90022310e-02
  2.90737276e-01  5.07769092e-01  5.41187605e-01  6.50976044e-01
  6.60292601e-01  6.63547650e-01  1.65886082e+00  1.81748966e+00
  1.88163616e+00  2.12456985e+00  2.15323055e+00  2.16306560e+00
  5.69908571e+00  5.75523141e+00  5.77426450e+00  5.82830616e+00
  5.90497878e+00  7.27277963e+00  1.96346797e+01  1.96966100e+01
  2.67417360e+01  7.83283499e+01  7.83585185e+01  9.10736625e+01
  3.80636694e+02]
beta-B1g nocc = 0
   mo_energy = [-4.73146237e-02  8.63216348e-02  5.32244273e-01  6.56354262e-01
  6.62720866e-01  1.86457690e+00  2.14116050e+00  2.16058802e+00
  5.73171541e+00  5.76949036e+00  5.88546491e+00  1.96810635e+01
  7.83509769e+01]
beta-B2g nocc = 0
   mo_energy = [-4.73146237e-02  8.63216348e-02  5.32244273e-01  6.56354262e-01
  6.62720866e-01  1.86457690e+00  2.14116050e+00  2.16058802e+00
  5.73171541e+00  5.76949036e+00  5.88546491e+00  1.96810635e+01
  7.83509769e+01]
beta-B3g nocc = 0
   mo_energy = [-4.94348572e-02  7.87923408e-02  5.07769092e-01  6.50976044e-01
  6.60292601e-01  1.81748966e+00  2.12456985e+00  2.15323055e+00
  5.69908571e+00  5.75523141e+00  5.82830616e+00  1.96346797e+01
  7.83283499e+01]
beta-Au nocc = 0
   mo_energy = [ 0.11951466  0.63872972  2.01473738  6.06406462 24.81728571]
beta-B1u nocc = 0
   mo_energy = [-3.39936598e-01 -8.54740932e-02 -2.84288494e-02  1.16789486e-01
  1.21156031e-01  2.08400098e-01  6.28067362e-01  6.45248538e-01
  1.20016523e+00  1.98644013e+00  2.03219508e+00  4.53780626e+00
  6.01828764e+00  6.09205355e+00  1.49583481e+01  2.47778891e+01
  2.48410149e+01  4.93890662e+01  1.66680605e+02]
beta-B2u nocc = 0
   mo_energy = [-3.39936598e-01 -8.54740932e-02 -2.84288494e-02  1.16789486e-01
  1.21156031e-01  2.08400098e-01  6.28067362e-01  6.45248538e-01
  1.20016523e+00  1.98644013e+00  2.03219508e+00  4.53780626e+00
  6.01828764e+00  6.09205355e+00  1.49583481e+01  2.47778891e+01
  2.48410149e+01  4.93890662e+01  1.66680605e+02]
beta-B3u nocc = 0
   mo_energy = [-2.73393856e-01 -7.99949510e-02 -2.22897328e-02  1.19514658e-01
  1.21714314e-01  2.34260843e-01  6.38729722e-01  6.47454457e-01
  1.25267649e+00  2.01473738e+00  2.03811578e+00  4.60613674e+00
  6.06406462e+00  6.10148807e+00  1.50197679e+01  2.48172857e+01
  2.48489402e+01  4.94273267e+01  1.66697985e+02]
multiplicity <S^2> = 0.75641401  2S+1 = 2.0064038
E1 = -47.57027112910914  Ecoul = 10.273760116612557
cycle= 4 E= -37.2965110124966  delta_E= -0.000629  |g|= 0.00391  |ddm|= 0.053
    CPU time for cycle= 4      0.34 sec, wall time      0.09 sec
diis-norm(errvec)=0.00552893
diis-c [-1.12635422e-05 -1.06975180e-04  7.24046055e-02 -3.67201540e-01
  1.29490391e+00]
alpha HOMO (B3u) = -0.914155054583891  LUMO (B2u) = -0.362258639826592
alpha irrep_nelec = [2, 0, 0, 0, 0, 0, 0, 1]
beta  irrep_nelec = [2, 0, 0, 0, 0, 0, 0, 0]
alpha-Ag nocc = 2  HOMO = -1.22394608794259  LUMO = -0.130215465607158
   mo_energy = [-1.19129187e+01 -1.22394609e+00 -1.30215466e-01 -4.94643028e-02
 -4.76630018e-02 -3.27582791e-02  7.85145384e-02  8.04433322e-02
  2.76893499e-01  4.96187631e-01  5.05554381e-01  6.51010852e-01
  6.59060694e-01  6.61776190e-01  1.62691923e+00  1.79535493e+00
  1.81008583e+00  2.12435533e+00  2.14376299e+00  2.15028104e+00
  5.69700299e+00  5.73071790e+00  5.74198874e+00  5.81871094e+00
  5.82994274e+00  7.24377517e+00  1.96288649e+01  1.96594262e+01
  2.67286002e+01  7.83267837e+01  7.83487008e+01  9.10698373e+01
  3.80636263e+02]
alpha-B1g nocc = 0
   mo_energy = [-4.81365573e-02  7.97236240e-02  4.97671203e-01  6.55685463e-01
  6.61096023e-01  1.79784428e+00  2.13564880e+00  2.14864931e+00
  5.71664390e+00  5.73917061e+00  5.82701967e+00  1.96517611e+01
  7.83432202e+01]
alpha-B2g nocc = 0
   mo_energy = [-4.81365573e-02  7.97236240e-02  4.97671203e-01  6.55685463e-01
  6.61096023e-01  1.79784428e+00  2.13564880e+00  2.14864931e+00
  5.71664390e+00  5.73917061e+00  5.82701967e+00  1.96517611e+01
  7.83432202e+01]
alpha-B3g nocc = 0
   mo_energy = [-4.94643028e-02  7.85145384e-02  5.05554381e-01  6.51010852e-01
  6.59060694e-01  1.81008583e+00  2.12435533e+00  2.14376299e+00
  5.69700299e+00  5.73071790e+00  5.81871094e+00  1.96288649e+01
  7.83267837e+01]
alpha-Au nocc = 0
   mo_energy = [ 0.11922439  0.6344017   1.99539835  6.03148476 24.79714907]
alpha-B1u nocc = 0
   mo_energy = [-3.62258640e-01 -8.66514946e-02 -2.96700599e-02  1.16794740e-01
  1.20684437e-01  2.02342510e-01  6.27937597e-01  6.38318831e-01
  1.18817942e+00  1.98472299e+00  2.00180097e+00  4.52474761e+00
  6.01296433e+00  6.04262821e+00  1.49493548e+01  2.47735132e+01
  2.48113615e+01  4.93854026e+01  1.66679924e+02]
alpha-B2u nocc = 0
   mo_energy = [-3.62258640e-01 -8.66514946e-02 -2.96700599e-02  1.16794740e-01
  1.20684437e-01  2.02342510e-01  6.27937597e-01  6.38318831e-01
  1.18817942e+00  1.98472299e+00  2.00180097e+00  4.52474761e+00
  6.01296433e+00  6.04262821e+00  1.49493548e+01  2.47735132e+01
  2.48113615e+01  4.93854026e+01  1.66679924e+02]
alpha-B3u nocc = 1  HOMO = -0.914155054583891  LUMO = -0.0911858010556185
   mo_energy = [-9.14155055e-01 -9.11858011e-02 -3.43743882e-02  1.19224395e-01
  1.21168319e-01  1.76295882e-01  6.34401698e-01  6.39628209e-01
  1.15076166e+00  1.99539835e+00  2.00392862e+00  4.52285872e+00
  6.03148476e+00  6.04634870e+00  1.49756978e+01  2.47971491e+01
  2.48161041e+01  4.94113279e+01  1.66694220e+02]
beta-Ag nocc = 2  HOMO = -1.08789844395423  LUMO = -0.126792573708037
   mo_energy = [-1.18836870e+01 -1.08789844e+00 -1.26792574e-01 -4.94507407e-02
 -4.66501950e-02 -2.96041750e-02  7.86640345e-02  8.88147830e-02
  2.90895909e-01  5.07319894e-01  5.40605661e-01  6.50939938e-01
  6.60165007e-01  6.63388259e-01  1.65898843e+00  1.81702856e+00
  1.88122285e+00  2.12424639e+00  2.15269526e+00  2.16246870e+00
  5.69836177e+00  5.75446961e+00  5.77351230e+00  5.82774609e+00
  5.90477388e+00  7.27278666e+00  1.96342266e+01  1.96966488e+01
  2.67418946e+01  7.83284654e+01  7.83589543e+01  9.10741457e+01
  3.80637457e+02]
beta-B1g nocc = 0
   mo_energy = [-4.73411272e-02  8.61495442e-02  5.31697059e-01  6.56265016e-01
  6.62569609e-01  1.86413400e+00  2.14070911e+00  2.16000598e+00
  5.73096096e+00  5.76873463e+00  5.88515288e+00  1.96809690e+01
  7.83513305e+01]
beta-B2g nocc = 0
   mo_energy = [-4.73411272e-02  8.61495442e-02  5.31697059e-01  6.56265016e-01
  6.62569609e-01  1.86413400e+00  2.14070911e+00  2.16000598e+00
  5.73096096e+00  5.76873463e+00  5.88515288e+00  1.96809690e+01
  7.83513305e+01]
beta-B3g nocc = 0
   mo_energy = [-4.94507407e-02  7.86640345e-02  5.07319894e-01  6.50939938e-01
  6.60165007e-01  1.81702856e+00  2.12424639e+00  2.15269526e+00
  5.69836177e+00  5.75446961e+00  5.82774609e+00  1.96342266e+01
  7.83284654e+01]
beta-Au nocc = 0
   mo_energy = [ 0.11948801  0.63846414  2.01410122  6.0634453  24.81701984]
beta-B1u nocc = 0
   mo_energy = [-3.40546379e-01 -8.54674509e-02 -2.84228640e-02  1.16783469e-01
  1.21117532e-01  2.08366516e-01  6.27894287e-01  6.44928917e-01
  1.19982659e+00  1.98591505e+00  2.03150380e+00  4.53737674e+00
  6.01755907e+00  6.09152603e+00  1.49581236e+01  2.47773050e+01
  2.48409517e+01  4.93892171e+01  1.66681126e+02]
beta-B2u nocc = 0
   mo_energy = [-3.40546379e-01 -8.54674509e-02 -2.84228640e-02  1.16783469e-01
  1.21117532e-01  2.08366516e-01  6.27894287e-01  6.44928917e-01
  1.19982659e+00  1.98591505e+00  2.03150380e+00  4.53737674e+00
  6.01755907e+00  6.09152603e+00  1.49581236e+01  2.47773050e+01
  2.48409517e+01  4.93892171e+01  1.66681126e+02]
beta-B3u nocc = 0
   mo_energy = [-2.73799329e-01 -7.99871876e-02 -2.22760289e-02  1.19488012e-01
  1.21671812e-01  2.34260746e-01  6.38464135e-01  6.47117178e-01
  1.25241685e+00  2.01410122e+00  2.03740873e+00  4.60597809e+00
  6.06344530e+00  6.10099651e+00  1.50199549e+01  2.48170198e+01
  2.48489467e+01  4.94278327e+01  1.66698700e+02]
multiplicity <S^2> = 0.75665416  2S+1 = 2.0066431
E1 = -47.57166164059146  Ecoul = 10.275134997338473
cycle= 5 E= -37.296526643253  delta_E= -1.56e-05  |g|= 0.00067  |ddm|= 0.0106
    CPU time for cycle= 5      0.34 sec, wall time      0.09 sec
diis-norm(errvec)=0.00094746
diis-c [-1.54624743e-07  2.14769299e-04 -1.08694340e-02  6.16678892e-02
 -3.49467873e-01  1.29845465e+00]
alpha HOMO (B3u) = -0.914300497023704  LUMO (B1u) = -0.362139514602835
alpha irrep_nelec = [2, 0, 0, 0, 0, 0, 0, 1]
beta  irrep_nelec = [2, 0, 0, 0, 0, 0, 0, 0]
alpha-Ag nocc = 2  HOMO = -1.22400262872793  LUMO = -0.130208191899941
   mo_energy = [-1.19125347e+01 -1.22400263e+00 -1.30208192e-01 -4.94577773e-02
 -4.76607398e-02 -3.27565095e-02  7.85381664e-02  8.04616757e-02
  2.76894743e-01  4.96283247e-01  5.05625233e-01  6.51037290e-01
  6.59068905e-01  6.61778106e-01  1.62696438e+00  1.79546330e+00
  1.81020144e+00  2.12442634e+00  2.14381139e+00  2.15032170e+00
  5.69715678e+00  5.73086284e+00  5.74213072e+00  5.81897467e+00
  5.83015970e+00  7.24402388e+00  1.96293284e+01  1.96599004e+01
  2.67290185e+01  7.83272816e+01  7.83492249e+01  9.10702656e+01
  3.80636598e+02]
alpha-B1g nocc = 0
   mo_energy = [-4.81331220e-02  7.97433495e-02  4.97757307e-01  6.55701405e-01
  6.61099521e-01  1.79794487e+00  2.13570673e+00  2.14869191e+00
  5.71679258e+00  5.73931332e+00  5.82724592e+00  1.96522329e+01
  7.83437380e+01]
alpha-B2g nocc = 0
   mo_energy = [-4.81331220e-02  7.97433495e-02  4.97757307e-01  6.55701405e-01
  6.61099521e-01  1.79794487e+00  2.13570673e+00  2.14869191e+00
  5.71679258e+00  5.73931332e+00  5.82724592e+00  1.96522329e+01
  7.83437380e+01]
alpha-B3g nocc = 0
   mo_energy = [-4.94577773e-02  7.85381664e-02  5.05625233e-01  6.51037290e-01
  6.59068905e-01  1.81020144e+00  2.12442634e+00  2.14381139e+00
  5.69715678e+00  5.73086284e+00  5.81897467e+00  1.96293284e+01
  7.83272816e+01]
alpha-Au nocc = 0
   mo_energy = [ 0.11922954  0.63443091  1.99549171  6.0316865  24.79763302]
alpha-B1u nocc = 0
   mo_energy = [-3.62139515e-01 -8.66427014e-02 -2.96617145e-02  1.16805749e-01
  1.20685987e-01  2.02384034e-01  6.27978186e-01  6.38341399e-01
  1.18832589e+00  1.98481934e+00  2.00189480e+00  4.52503553e+00
  6.01317198e+00  6.04282749e+00  1.49497654e+01  2.47739792e+01
  2.48118559e+01  4.93858668e+01  1.66680333e+02]
alpha-B2u nocc = 0
   mo_energy = [-3.62139515e-01 -8.66427014e-02 -2.96617145e-02  1.16805749e-01
  1.20685987e-01  2.02384034e-01  6.27978186e-01  6.38341399e-01
  1.18832589e+00  1.98481934e+00  2.00189480e+00  4.52503553e+00
  6.01317198e+00  6.04282749e+00  1.49497654e+01  2.47739792e+01
  2.48118559e+01  4.93858668e+01  1.66680333e+02]
alpha-B3u nocc = 1  HOMO = -0.914300497023704  LUMO = -0.0911550726967593
   mo_energy = [-9.14300497e-01 -9.11550727e-02 -3.43580713e-02  1.19229543e-01
  1.21168656e-01  1.76319631e-01  6.34430913e-01  6.39648581e-01
  1.15079569e+00  1.99549171e+00  2.00402287e+00  4.52307529e+00
  6.03168650e+00  6.04654731e+00  1.49761078e+01  2.47976330e+01
  2.48166018e+01  4.94118182e+01  1.66694648e+02]
beta-Ag nocc = 2  HOMO = -1.08743237479002  LUMO = -0.12676991165824
   mo_energy = [-1.18829745e+01 -1.08743237e+00 -1.26769912e-01 -4.94472508e-02
 -4.66546336e-02 -2.95828240e-02  7.86712791e-02  8.87999583e-02
  2.90990297e-01  5.07364914e-01  5.40597909e-01  6.50959612e-01
  6.60162188e-01  6.63377141e-01  1.65925726e+00  1.81723612e+00
  1.88139081e+00  2.12430080e+00  2.15270319e+00  2.16245951e+00
  5.69855277e+00  5.75463055e+00  5.77366083e+00  5.82812523e+00
  5.90517968e+00  7.27326657e+00  1.96347196e+01  1.96972067e+01
  2.67424743e+01  7.83289995e+01  7.83595327e+01  9.10747015e+01
  3.80637884e+02]
beta-B1g nocc = 0
   mo_energy = [-4.73436119e-02  8.61407410e-02  5.31703437e-01  6.56271883e-01
  6.62560636e-01  1.86431131e+00  2.14073723e+00  2.16000115e+00
  5.73113596e+00  5.76888636e+00  5.88555335e+00  1.96815116e+01
  7.83518981e+01]
beta-B2g nocc = 0
   mo_energy = [-4.73436119e-02  8.61407410e-02  5.31703437e-01  6.56271883e-01
  6.62560636e-01  1.86431131e+00  2.14073723e+00  2.16000115e+00
  5.73113596e+00  5.76888636e+00  5.88555335e+00  1.96815116e+01
  7.83518981e+01]
beta-B3g nocc = 0
   mo_energy = [-4.94472508e-02  7.86712791e-02  5.07364914e-01  6.50959612e-01
  6.60162188e-01  1.81723612e+00  2.12430080e+00  2.15270319e+00
  5.69855277e+00  5.75463055e+00  5.82812523e+00  1.96347196e+01
  7.83289995e+01]
beta-Au nocc = 0
   mo_energy = [ 0.11948857  0.63846428  2.01416272  6.06374757 24.81756815]
beta-B1u nocc = 0
   mo_energy = [-3.40339874e-01 -8.54478438e-02 -2.84020600e-02  1.16791894e-01
  1.21113270e-01  2.08461887e-01  6.27915698e-01  6.44915357e-01
  1.20003217e+00  1.98601046e+00  2.03154255e+00  4.53772738e+00
  6.01786033e+00  6.09182678e+00  1.49586113e+01  2.47778079e+01
  2.48415264e+01  4.93897700e+01  1.66681627e+02]
beta-B2u nocc = 0
   mo_energy = [-3.40339874e-01 -8.54478438e-02 -2.84020600e-02  1.16791894e-01
  1.21113270e-01  2.08461887e-01  6.27915698e-01  6.44915357e-01
  1.20003217e+00  1.98601046e+00  2.03154255e+00  4.53772738e+00
  6.01786033e+00  6.09182678e+00  1.49586113e+01  2.47778079e+01
  2.48415264e+01  4.93897700e+01  1.66681627e+02]
beta-B3u nocc = 0
   mo_energy = [-2.73688345e-01 -7.99749219e-02 -2.22574775e-02  1.19488574e-01
  1.21665876e-01  2.34348687e-01  6.38464276e-01  6.47098839e-01
  1.25260977e+00  2.01416272e+00  2.03743931e+00  4.60634285e+00
  6.06374757e+00  6.10129629e+00  1.50204949e+01  2.48175681e+01
  2.48495299e+01  4.94284348e+01  1.66699226e+02]
multiplicity <S^2> = 0.75667259  2S+1 = 2.0066615
E1 = -47.57177041624659  Ecoul = 10.275243398296144
cycle= 6 E= -37.2965270179505  delta_E= -3.75e-07  |g|= 6.8e-05  |ddm|= 0.0022
    CPU time for cycle= 6      0.34 sec, wall time      0.09 sec
diis-norm(errvec)=9.61028e-05
diis-c [-2.03288527e-09 -9.92207168e-05  1.71168295e-03 -8.86279483e-03
  6.06898841e-02 -2.90445889e-01  1.23700634e+00]
alpha HOMO (B3u) = -0.914273818517467  LUMO (B1u) = -0.362145815513047
alpha irrep_nelec = [2, 0, 0, 0, 0, 0, 0, 1]
beta  irrep_nelec = [2, 0, 0, 0, 0, 0, 0, 0]
alpha-Ag nocc = 2  HOMO = -1.22402700778767  LUMO = -0.13021005111536
   mo_energy = [-1.19125592e+01 -1.22402701e+00 -1.30210051e-01 -4.94578695e-02
 -4.76603439e-02 -3.27581056e-02  7.85385088e-02  8.04628924e-02
  2.76889248e-01  4.96287266e-01  5.05625816e-01  6.51036556e-01
  6.59069098e-01  6.61778512e-01  1.62695400e+00  1.79546452e+00
  1.81019568e+00  2.12442656e+00  2.14381324e+00  2.15032409e+00
  5.69715524e+00  5.73086279e+00  5.74213122e+00  5.81896584e+00
  5.83015493e+00  7.24400922e+00  1.96293170e+01  1.96598881e+01
  2.67290004e+01  7.83272674e+01  7.83492086e+01  9.10702489e+01
  3.80636591e+02]
alpha-B1g nocc = 0
   mo_energy = [-4.81328717e-02  7.97440668e-02  4.97758414e-01  6.55701268e-01
  6.61099877e-01  1.79794240e+00  2.13570792e+00  2.14869417e+00
  5.71679193e+00  5.73931368e+00  5.82723989e+00  1.96522211e+01
  7.83437222e+01]
alpha-B2g nocc = 0
   mo_energy = [-4.81328717e-02  7.97440668e-02  4.97758414e-01  6.55701268e-01
  6.61099877e-01  1.79794240e+00  2.13570792e+00  2.14869417e+00
  5.71679193e+00  5.73931368e+00  5.82723989e+00  1.96522211e+01
  7.83437222e+01]
alpha-B3g nocc = 0
   mo_energy = [-4.94578695e-02  7.85385088e-02  5.05625816e-01  6.51036556e-01
  6.59069098e-01  1.81019568e+00  2.12442656e+00  2.14381324e+00
  5.69715524e+00  5.73086279e+00  5.81896584e+00  1.96293170e+01
  7.83272674e+01]
alpha-Au nocc = 0
   mo_energy = [ 0.11922951  0.63443164  1.99549259  6.03168182 24.79762035]
alpha-B1u nocc = 0
   mo_energy = [-3.62145816e-01 -8.66436609e-02 -2.96626588e-02  1.16805353e-01
  1.20686129e-01  2.02380295e-01  6.27978271e-01  6.38342628e-01
  1.18832119e+00  1.98481909e+00  2.00189743e+00  4.52502771e+00
  6.01316622e+00  6.04282387e+00  1.49497532e+01  2.47739676e+01
  2.48118424e+01  4.93858509e+01  1.66680320e+02]
alpha-B2u nocc = 0
   mo_energy = [-3.62145816e-01 -8.66436609e-02 -2.96626588e-02  1.16805353e-01
  1.20686129e-01  2.02380295e-01  6.27978271e-01  6.38342628e-01
  1.18832119e+00  1.98481909e+00  2.00189743e+00  4.52502771e+00
  6.01316622e+00  6.04282387e+00  1.49497532e+01  2.47739676e+01
  2.48118424e+01  4.93858509e+01  1.66680320e+02]
alpha-B3u nocc = 1  HOMO = -0.914273818517467  LUMO = -0.0911572953727202
   mo_energy = [-9.14273819e-01 -9.11572954e-02 -3.43593088e-02  1.19229510e-01
  1.21168853e-01  1.76319182e-01  6.34431645e-01  6.39649984e-01
  1.15080176e+00  1.99549259e+00  2.00402628e+00  4.52307438e+00
  6.03168182e+00  6.04654415e+00  1.49760958e+01  2.47976203e+01
  2.48165881e+01  4.94118004e+01  1.66694634e+02]
beta-Ag nocc = 2  HOMO = -1.08742037391506  LUMO = -0.126769128014455
   mo_energy = [-1.18829780e+01 -1.08742037e+00 -1.26769128e-01 -4.94474590e-02
 -4.66545458e-02 -2.95820453e-02  7.86709315e-02  8.87995388e-02
  2.90993468e-01  5.07365182e-01  5.40594030e-01  6.50958615e-01
  6.60162174e-01  6.63377288e-01  1.65926347e+00  1.81724019e+00
  1.88138670e+00  2.12430048e+00  2.15270288e+00  2.16245841e+00
  5.69855571e+00  5.75463079e+00  5.77365890e+00  5.82812591e+00
  5.90517312e+00  7.27326683e+00  1.96347095e+01  1.96971910e+01
  2.67424674e+01  7.83289881e+01  7.83595182e+01  9.10746954e+01
  3.80637886e+02]
beta-B1g nocc = 0
   mo_energy = [-4.73435685e-02  8.61405116e-02  5.31701541e-01  6.56271533e-01
  6.62560755e-01  1.86431094e+00  2.14073732e+00  2.16000030e+00
  5.73113794e+00  5.76888504e+00  5.88554963e+00  1.96814978e+01
  7.83518844e+01]
beta-B2g nocc = 0
   mo_energy = [-4.73435685e-02  8.61405116e-02  5.31701541e-01  6.56271533e-01
  6.62560755e-01  1.86431094e+00  2.14073732e+00  2.16000030e+00
  5.73113794e+00  5.76888504e+00  5.88554963e+00  1.96814978e+01
  7.83518844e+01]
beta-B3g nocc = 0
   mo_energy = [-4.94474590e-02  7.86709315e-02  5.07365182e-01  6.50958615e-01
  6.60162174e-01  1.81724019e+00  2.12430048e+00  2.15270288e+00
  5.69855571e+00  5.75463079e+00  5.82812591e+00  1.96347095e+01
  7.83289881e+01]
beta-Au nocc = 0
   mo_energy = [ 0.11948852  0.63846395  2.01416285  6.06374822 24.81755579]
beta-B1u nocc = 0
   mo_energy = [-3.40334794e-01 -8.54476877e-02 -2.84018563e-02  1.16791420e-01
  1.21113436e-01  2.08463047e-01  6.27914938e-01  6.44914955e-01
  1.20003209e+00  1.98601170e+00  2.03154083e+00  4.53772367e+00
  6.01786378e+00  6.09182439e+00  1.49586043e+01  2.47777988e+01
  2.48415116e+01  4.93897613e+01  1.66681622e+02]
beta-B2u nocc = 0
   mo_energy = [-3.40334794e-01 -8.54476877e-02 -2.84018563e-02  1.16791420e-01
  1.21113436e-01  2.08463047e-01  6.27914938e-01  6.44914955e-01
  1.20003209e+00  1.98601170e+00  2.03154083e+00  4.53772367e+00
  6.01786378e+00  6.09182439e+00  1.49586043e+01  2.47777988e+01
  2.48415116e+01  4.93897613e+01  1.66681622e+02]
beta-B3u nocc = 0
   mo_energy = [-2.73700903e-01 -7.99752516e-02 -2.22578781e-02  1.19488524e-01
  1.21666105e-01  2.34347552e-01  6.38463949e-01  6.47098337e-01
  1.25260505e+00  2.01416285e+00  2.03743672e+00  4.60633300e+00
  6.06374822e+00  6.10129260e+00  1.50204828e+01  2.48175558e+01
  2.48495144e+01  4.94284225e+01  1.66699220e+02]
multiplicity <S^2> = 0.75667101  2S+1 = 2.0066599
E1 = -47.57179394837405  Ecoul = 10.275266926930204
cycle= 7 E= -37.2965270214439  delta_E= -3.49e-09  |g|= 6.28e-06  |ddm|= 0.000146
    CPU time for cycle= 7      0.34 sec, wall time      0.09 sec
diis-norm(errvec)=8.88647e-06
diis-c [-8.49682463e-12  1.09832191e-05 -1.67059596e-04  7.86207417e-04
 -6.58499641e-03  3.43287654e-02 -2.12387461e-01  1.18401356e+00]
alpha HOMO (B3u) = -0.914273261965075  LUMO (B1u) = -0.362145728995701
alpha irrep_nelec = [2, 0, 0, 0, 0, 0, 0, 1]
beta  irrep_nelec = [2, 0, 0, 0, 0, 0, 0, 0]
alpha-Ag nocc = 2  HOMO = -1.22402860058906  LUMO = -0.130210088587485
   mo_energy = [-1.19125607e+01 -1.22402860e+00 -1.30210089e-01 -4.94578442e-02
 -4.76602761e-02 -3.27581140e-02  7.85386667e-02  8.04634675e-02
  2.76889119e-01  4.96287968e-01  5.05626130e-01  6.51036646e-01
  6.59069280e-01  6.61778721e-01  1.62695370e+00  1.79546482e+00
  1.81019564e+00  2.12442689e+00  2.14381388e+00  2.15032485e+00
  5.69715538e+00  5.73086346e+00  5.74213205e+00  5.81896556e+00
  5.83015540e+00  7.24400876e+00  1.96293168e+01  1.96598883e+01
  2.67289999e+01  7.83272672e+01  7.83492085e+01  9.10702485e+01
  3.80636591e+02]
alpha-B1g nocc = 0
   mo_energy = [-4.81328160e-02  7.97444662e-02  4.97758763e-01  6.55701415e-01
  6.61100080e-01  1.79794249e+00  2.13570843e+00  2.14869489e+00
  5.71679238e+00  5.73931447e+00  5.82724017e+00  1.96522212e+01
  7.83437221e+01]
alpha-B2g nocc = 0
   mo_energy = [-4.81328160e-02  7.97444662e-02  4.97758763e-01  6.55701415e-01
  6.61100080e-01  1.79794249e+00  2.13570843e+00  2.14869489e+00
  5.71679238e+00  5.73931447e+00  5.82724017e+00  1.96522212e+01
  7.83437221e+01]
alpha-B3g nocc = 0
[...]
  2.48415118e+01  4.93897618e+01  1.66681623e+02]
beta-B3u nocc = 0
   mo_energy = [-2.73701002e-01 -7.99752219e-02 -2.22578278e-02  1.19488521e-01
  1.21666070e-01  2.34347862e-01  6.38464084e-01  6.47098400e-01
  1.25260562e+00  2.01416356e+00  2.03743748e+00  4.60633368e+00
  6.06374917e+00  6.10129368e+00  1.50204832e+01  2.48175559e+01
  2.48495145e+01  4.94284230e+01  1.66699220e+02]
multiplicity <S^2> = 0.75667108  2S+1 = 2.00666
E1 = -47.57179697998095  Ecoul = 10.27526995850052
cycle= 48 E= -37.2965270214804  delta_E= 1.42e-14  |g|= 2.24e-12  |ddm|= 2.1e-12
    CPU time for cycle= 48      0.35 sec, wall time      0.09 sec
diis-norm(errvec)=3.15909e-12
Linear dependence found in DIIS error vectors.
diis-c [-2.89052492e-16  1.25000000e-01  1.25000000e-01  1.25000000e-01
  1.25000000e-01  1.25000000e-01  1.25000000e-01  1.25000000e-01
  1.25000000e-01]
alpha HOMO (B3u) = -0.914273315724141  LUMO (B1u) = -0.362145686430472
alpha irrep_nelec = [2, 0, 0, 0, 0, 0, 0, 1]
beta  irrep_nelec = [2, 0, 0, 0, 0, 0, 0, 0]
alpha-Ag nocc = 2  HOMO = -1.22402862291976  LUMO = -0.130210074882332
   mo_energy = [-1.19125606e+01 -1.22402862e+00 -1.30210075e-01 -4.94578398e-02
 -4.76602708e-02 -3.27581037e-02  7.85386787e-02  8.04635029e-02
  2.76889149e-01  4.96288009e-01  5.05626154e-01  6.51036662e-01
  6.59069294e-01  6.61778736e-01  1.62695375e+00  1.79546485e+00
  1.81019569e+00  2.12442691e+00  2.14381392e+00  2.15032489e+00
  5.69715542e+00  5.73086353e+00  5.74213214e+00  5.81896566e+00
  5.83015554e+00  7.24400886e+00  1.96293169e+01  1.96598884e+01
  2.67290000e+01  7.83272673e+01  7.83492086e+01  9.10702486e+01
  3.80636591e+02]
alpha-B1g nocc = 0
   mo_energy = [-4.81328127e-02  7.97444851e-02  4.97758796e-01  6.55701429e-01
  6.61100095e-01  1.79794253e+00  2.13570846e+00  2.14869494e+00
  5.71679245e+00  5.73931455e+00  5.82724029e+00  1.96522213e+01
  7.83437222e+01]
alpha-B2g nocc = 0
   mo_energy = [-4.81328127e-02  7.97444851e-02  4.97758796e-01  6.55701429e-01
  6.61100095e-01  1.79794253e+00  2.13570846e+00  2.14869494e+00
  5.71679245e+00  5.73931455e+00  5.82724029e+00  1.96522213e+01
  7.83437222e+01]
alpha-B3g nocc = 0
   mo_energy = [-4.94578398e-02  7.85386787e-02  5.05626154e-01  6.51036662e-01
  6.59069294e-01  1.81019569e+00  2.12442691e+00  2.14381392e+00
  5.69715542e+00  5.73086353e+00  5.81896566e+00  1.96293169e+01
  7.83272673e+01]
alpha-Au nocc = 0
   mo_energy = [ 0.11922955  0.63443205  1.99549311  6.03168214 24.79762039]
alpha-B1u nocc = 0
   mo_energy = [-3.62145686e-01 -8.66436934e-02 -2.96626827e-02  1.16805385e-01
  1.20686180e-01  2.02380282e-01  6.27978512e-01  6.38343169e-01
  1.18832128e+00  1.98481943e+00  2.00189812e+00  4.52502782e+00
  6.01316614e+00  6.04282444e+00  1.49497531e+01  2.47739674e+01
  2.48118426e+01  4.93858506e+01  1.66680320e+02]
alpha-B2u nocc = 0
   mo_energy = [-3.62145686e-01 -8.66436934e-02 -2.96626827e-02  1.16805385e-01
  1.20686180e-01  2.02380282e-01  6.27978512e-01  6.38343169e-01
  1.18832128e+00  1.98481943e+00  2.00189812e+00  4.52502782e+00
  6.01316614e+00  6.04282444e+00  1.49497531e+01  2.47739674e+01
  2.48118426e+01  4.93858506e+01  1.66680320e+02]
alpha-B3u nocc = 1  HOMO = -0.914273315724141  LUMO = -0.0911574046092781
   mo_energy = [-9.14273316e-01 -9.11574046e-02 -3.43593003e-02  1.19229554e-01
  1.21168903e-01  1.76319498e-01  6.34432047e-01  6.39650578e-01
  1.15080261e+00  1.99549311e+00  2.00402705e+00  4.52307527e+00
  6.03168214e+00  6.04654480e+00  1.49760962e+01  2.47976204e+01
  2.48165882e+01  4.94118002e+01  1.66694633e+02]
beta-Ag nocc = 2  HOMO = -1.08741775986605  LUMO = -0.12676902077139
   mo_energy = [-1.18829768e+01 -1.08741776e+00 -1.26769021e-01 -4.94474467e-02
 -4.66545667e-02 -2.95819291e-02  7.86709913e-02  8.87994746e-02
  2.90994079e-01  5.07365471e-01  5.40594200e-01  6.50958681e-01
  6.60162198e-01  6.63377270e-01  1.65926486e+00  1.81724102e+00
  1.88138770e+00  2.12430078e+00  2.15270341e+00  2.16245894e+00
  5.69855624e+00  5.75463185e+00  5.77366005e+00  5.82812653e+00
  5.90517394e+00  7.27326791e+00  1.96347097e+01  1.96971911e+01
  2.67424681e+01  7.83289884e+01  7.83595185e+01  9.10746961e+01
  3.80637886e+02]
beta-B1g nocc = 0
   mo_energy = [-4.73435761e-02  8.61405050e-02  5.31701807e-01  6.56271588e-01
  6.62560749e-01  1.86431196e+00  2.14073779e+00  2.16000083e+00
  5.73113882e+00  5.76888617e+00  5.88555045e+00  1.96814979e+01
  7.83518847e+01]
beta-B2g nocc = 0
   mo_energy = [-4.73435761e-02  8.61405050e-02  5.31701807e-01  6.56271588e-01
  6.62560749e-01  1.86431196e+00  2.14073779e+00  2.16000083e+00
  5.73113882e+00  5.76888617e+00  5.88555045e+00  1.96814979e+01
  7.83518847e+01]
beta-B3g nocc = 0
   mo_energy = [-4.94474467e-02  7.86709913e-02  5.07365471e-01  6.50958681e-01
  6.60162198e-01  1.81724102e+00  2.12430078e+00  2.15270341e+00
  5.69855624e+00  5.75463185e+00  5.82812653e+00  1.96347097e+01
  7.83289884e+01]
beta-Au nocc = 0
   mo_energy = [ 0.11948852  0.63846408  2.01416356  6.06374917 24.81755591]
beta-B1u nocc = 0
   mo_energy = [-3.40333756e-01 -8.54476222e-02 -2.84017840e-02  1.16791439e-01
  1.21113410e-01  2.08463400e-01  6.27915068e-01  6.44915044e-01
  1.20003264e+00  1.98601216e+00  2.03154159e+00  4.53772421e+00
  6.01786443e+00  6.09182544e+00  1.49586047e+01  2.47777989e+01
  2.48415118e+01  4.93897618e+01  1.66681623e+02]
beta-B2u nocc = 0
   mo_energy = [-3.40333756e-01 -8.54476222e-02 -2.84017840e-02  1.16791439e-01
  1.21113410e-01  2.08463400e-01  6.27915068e-01  6.44915044e-01
  1.20003264e+00  1.98601216e+00  2.03154159e+00  4.53772421e+00
  6.01786443e+00  6.09182544e+00  1.49586047e+01  2.47777989e+01
  2.48415118e+01  4.93897618e+01  1.66681623e+02]
beta-B3u nocc = 0
   mo_energy = [-2.73701002e-01 -7.99752219e-02 -2.22578278e-02  1.19488521e-01
  1.21666070e-01  2.34347862e-01  6.38464084e-01  6.47098400e-01
  1.25260562e+00  2.01416356e+00  2.03743748e+00  4.60633368e+00
  6.06374917e+00  6.10129368e+00  1.50204832e+01  2.48175559e+01
  2.48495145e+01  4.94284230e+01  1.66699220e+02]
multiplicity <S^2> = 0.75667108  2S+1 = 2.00666
E1 = -47.571796979981286  Ecoul = 10.275269958500818
cycle= 49 E= -37.2965270214805  delta_E= -4.26e-14  |g|= 1.85e-12  |ddm|= 4.33e-12
    CPU time for cycle= 49      0.34 sec, wall time      0.09 sec
diis-norm(errvec)=2.7302e-12
Linear dependence found in DIIS error vectors.
diis-c [-2.89052492e-16  1.25000000e-01  1.25000000e-01  1.25000000e-01
  1.25000000e-01  1.25000000e-01  1.25000000e-01  1.25000000e-01
  1.25000000e-01]
alpha HOMO (B3u) = -0.914273315724219  LUMO (B2u) = -0.362145686430441
alpha irrep_nelec = [2, 0, 0, 0, 0, 0, 0, 1]
beta  irrep_nelec = [2, 0, 0, 0, 0, 0, 0, 0]
alpha-Ag nocc = 2  HOMO = -1.2240286229198  LUMO = -0.130210074882358
   mo_energy = [-1.19125606e+01 -1.22402862e+00 -1.30210075e-01 -4.94578398e-02
 -4.76602708e-02 -3.27581037e-02  7.85386787e-02  8.04635029e-02
  2.76889149e-01  4.96288009e-01  5.05626154e-01  6.51036662e-01
  6.59069294e-01  6.61778736e-01  1.62695375e+00  1.79546485e+00
  1.81019569e+00  2.12442691e+00  2.14381392e+00  2.15032489e+00
  5.69715542e+00  5.73086353e+00  5.74213214e+00  5.81896566e+00
  5.83015554e+00  7.24400886e+00  1.96293169e+01  1.96598884e+01
  2.67290000e+01  7.83272673e+01  7.83492086e+01  9.10702486e+01
  3.80636591e+02]
alpha-B1g nocc = 0
   mo_energy = [-4.81328127e-02  7.97444851e-02  4.97758796e-01  6.55701429e-01
  6.61100095e-01  1.79794253e+00  2.13570846e+00  2.14869494e+00
  5.71679245e+00  5.73931455e+00  5.82724029e+00  1.96522213e+01
  7.83437222e+01]
alpha-B2g nocc = 0
   mo_energy = [-4.81328127e-02  7.97444851e-02  4.97758796e-01  6.55701429e-01
  6.61100095e-01  1.79794253e+00  2.13570846e+00  2.14869494e+00
  5.71679245e+00  5.73931455e+00  5.82724029e+00  1.96522213e+01
  7.83437222e+01]
alpha-B3g nocc = 0
   mo_energy = [-4.94578398e-02  7.85386787e-02  5.05626154e-01  6.51036662e-01
  6.59069294e-01  1.81019569e+00  2.12442691e+00  2.14381392e+00
  5.69715542e+00  5.73086353e+00  5.81896566e+00  1.96293169e+01
  7.83272673e+01]
alpha-Au nocc = 0
   mo_energy = [ 0.11922955  0.63443205  1.99549311  6.03168214 24.79762039]
alpha-B1u nocc = 0
   mo_energy = [-3.62145686e-01 -8.66436934e-02 -2.96626827e-02  1.16805385e-01
  1.20686180e-01  2.02380282e-01  6.27978512e-01  6.38343169e-01
  1.18832128e+00  1.98481943e+00  2.00189812e+00  4.52502782e+00
  6.01316614e+00  6.04282444e+00  1.49497531e+01  2.47739674e+01
  2.48118426e+01  4.93858506e+01  1.66680320e+02]
alpha-B2u nocc = 0
   mo_energy = [-3.62145686e-01 -8.66436934e-02 -2.96626827e-02  1.16805385e-01
  1.20686180e-01  2.02380282e-01  6.27978512e-01  6.38343169e-01
  1.18832128e+00  1.98481943e+00  2.00189812e+00  4.52502782e+00
  6.01316614e+00  6.04282444e+00  1.49497531e+01  2.47739674e+01
  2.48118426e+01  4.93858506e+01  1.66680320e+02]
alpha-B3u nocc = 1  HOMO = -0.914273315724219  LUMO = -0.0911574046092843
   mo_energy = [-9.14273316e-01 -9.11574046e-02 -3.43593003e-02  1.19229554e-01
  1.21168903e-01  1.76319498e-01  6.34432047e-01  6.39650578e-01
  1.15080261e+00  1.99549311e+00  2.00402705e+00  4.52307527e+00
  6.03168214e+00  6.04654480e+00  1.49760962e+01  2.47976204e+01
  2.48165882e+01  4.94118002e+01  1.66694633e+02]
beta-Ag nocc = 2  HOMO = -1.08741775986588  LUMO = -0.126769020771433
   mo_energy = [-1.18829768e+01 -1.08741776e+00 -1.26769021e-01 -4.94474467e-02
 -4.66545667e-02 -2.95819291e-02  7.86709913e-02  8.87994746e-02
  2.90994079e-01  5.07365471e-01  5.40594200e-01  6.50958681e-01
  6.60162198e-01  6.63377270e-01  1.65926486e+00  1.81724102e+00
  1.88138770e+00  2.12430078e+00  2.15270341e+00  2.16245894e+00
  5.69855624e+00  5.75463185e+00  5.77366005e+00  5.82812653e+00
  5.90517394e+00  7.27326791e+00  1.96347097e+01  1.96971911e+01
  2.67424681e+01  7.83289884e+01  7.83595185e+01  9.10746961e+01
  3.80637886e+02]
beta-B1g nocc = 0
   mo_energy = [-4.73435761e-02  8.61405050e-02  5.31701807e-01  6.56271588e-01
  6.62560749e-01  1.86431196e+00  2.14073779e+00  2.16000083e+00
  5.73113882e+00  5.76888617e+00  5.88555045e+00  1.96814979e+01
  7.83518847e+01]
beta-B2g nocc = 0
   mo_energy = [-4.73435761e-02  8.61405050e-02  5.31701807e-01  6.56271588e-01
  6.62560749e-01  1.86431196e+00  2.14073779e+00  2.16000083e+00
  5.73113882e+00  5.76888617e+00  5.88555045e+00  1.96814979e+01
  7.83518847e+01]
beta-B3g nocc = 0
   mo_energy = [-4.94474467e-02  7.86709913e-02  5.07365471e-01  6.50958681e-01
  6.60162198e-01  1.81724102e+00  2.12430078e+00  2.15270341e+00
  5.69855624e+00  5.75463185e+00  5.82812653e+00  1.96347097e+01
  7.83289884e+01]
beta-Au nocc = 0
   mo_energy = [ 0.11948852  0.63846408  2.01416356  6.06374917 24.81755591]
beta-B1u nocc = 0
   mo_energy = [-3.40333756e-01 -8.54476222e-02 -2.84017840e-02  1.16791439e-01
  1.21113410e-01  2.08463400e-01  6.27915068e-01  6.44915044e-01
  1.20003264e+00  1.98601216e+00  2.03154159e+00  4.53772421e+00
  6.01786443e+00  6.09182544e+00  1.49586047e+01  2.47777989e+01
  2.48415118e+01  4.93897618e+01  1.66681623e+02]
beta-B2u nocc = 0
   mo_energy = [-3.40333756e-01 -8.54476222e-02 -2.84017840e-02  1.16791439e-01
  1.21113410e-01  2.08463400e-01  6.27915068e-01  6.44915044e-01
  1.20003264e+00  1.98601216e+00  2.03154159e+00  4.53772421e+00
  6.01786443e+00  6.09182544e+00  1.49586047e+01  2.47777989e+01
  2.48415118e+01  4.93897618e+01  1.66681623e+02]
beta-B3u nocc = 0
   mo_energy = [-2.73701002e-01 -7.99752219e-02 -2.22578278e-02  1.19488521e-01
  1.21666070e-01  2.34347862e-01  6.38464084e-01  6.47098400e-01
  1.25260562e+00  2.01416356e+00  2.03743748e+00  4.60633368e+00
  6.06374917e+00  6.10129368e+00  1.50204832e+01  2.48175559e+01
  2.48495145e+01  4.94284230e+01  1.66699220e+02]
multiplicity <S^2> = 0.75667108  2S+1 = 2.00666
E1 = -47.57179697998146  Ecoul = 10.27526995850102
cycle= 50 E= -37.2965270214804  delta_E= 3.55e-14  |g|= 1.58e-12  |ddm|= 9.33e-13
    CPU time for cycle= 50      0.34 sec, wall time      0.09 sec
alpha HOMO (B3u) = -0.91427331572448  LUMO (B2u) = -0.362145686430333
alpha irrep_nelec = [2, 0, 0, 0, 0, 0, 0, 1]
beta  irrep_nelec = [2, 0, 0, 0, 0, 0, 0, 0]
alpha-Ag nocc = 2  HOMO = -1.22402862291968  LUMO = -0.130210074882288
   mo_energy = [-1.19125606e+01 -1.22402862e+00 -1.30210075e-01 -4.94578398e-02
 -4.76602708e-02 -3.27581037e-02  7.85386787e-02  8.04635029e-02
  2.76889149e-01  4.96288009e-01  5.05626154e-01  6.51036662e-01
  6.59069294e-01  6.61778736e-01  1.62695375e+00  1.79546485e+00
  1.81019569e+00  2.12442691e+00  2.14381392e+00  2.15032489e+00
  5.69715542e+00  5.73086353e+00  5.74213214e+00  5.81896566e+00
  5.83015554e+00  7.24400886e+00  1.96293169e+01  1.96598884e+01
  2.67290000e+01  7.83272673e+01  7.83492086e+01  9.10702486e+01
  3.80636591e+02]
alpha-B1g nocc = 0
   mo_energy = [-4.81328127e-02  7.97444851e-02  4.97758796e-01  6.55701429e-01
  6.61100095e-01  1.79794253e+00  2.13570846e+00  2.14869494e+00
  5.71679245e+00  5.73931455e+00  5.82724029e+00  1.96522213e+01
  7.83437222e+01]
alpha-B2g nocc = 0
   mo_energy = [-4.81328127e-02  7.97444851e-02  4.97758796e-01  6.55701429e-01
  6.61100095e-01  1.79794253e+00  2.13570846e+00  2.14869494e+00
  5.71679245e+00  5.73931455e+00  5.82724029e+00  1.96522213e+01
  7.83437222e+01]
alpha-B3g nocc = 0
   mo_energy = [-4.94578398e-02  7.85386787e-02  5.05626154e-01  6.51036662e-01
  6.59069294e-01  1.81019569e+00  2.12442691e+00  2.14381392e+00
  5.69715542e+00  5.73086353e+00  5.81896566e+00  1.96293169e+01
  7.83272673e+01]
alpha-Au nocc = 0
   mo_energy = [ 0.11922955  0.63443205  1.99549311  6.03168214 24.79762039]
alpha-B1u nocc = 0
   mo_energy = [-3.62145686e-01 -8.66436934e-02 -2.96626827e-02  1.16805385e-01
  1.20686180e-01  2.02380282e-01  6.27978512e-01  6.38343169e-01
  1.18832128e+00  1.98481943e+00  2.00189812e+00  4.52502782e+00
  6.01316614e+00  6.04282444e+00  1.49497531e+01  2.47739674e+01
  2.48118426e+01  4.93858506e+01  1.66680320e+02]
alpha-B2u nocc = 0
   mo_energy = [-3.62145686e-01 -8.66436934e-02 -2.96626827e-02  1.16805385e-01
  1.20686180e-01  2.02380282e-01  6.27978512e-01  6.38343169e-01
  1.18832128e+00  1.98481943e+00  2.00189812e+00  4.52502782e+00
  6.01316614e+00  6.04282444e+00  1.49497531e+01  2.47739674e+01
  2.48118426e+01  4.93858506e+01  1.66680320e+02]
alpha-B3u nocc = 1  HOMO = -0.91427331572448  LUMO = -0.0911574046093046
   mo_energy = [-9.14273316e-01 -9.11574046e-02 -3.43593003e-02  1.19229554e-01
  1.21168903e-01  1.76319498e-01  6.34432047e-01  6.39650578e-01
  1.15080261e+00  1.99549311e+00  2.00402705e+00  4.52307527e+00
  6.03168214e+00  6.04654480e+00  1.49760962e+01  2.47976204e+01
  2.48165882e+01  4.94118002e+01  1.66694633e+02]
beta-Ag nocc = 2  HOMO = -1.08741775986527  LUMO = -0.126769020771339
   mo_energy = [-1.18829768e+01 -1.08741776e+00 -1.26769021e-01 -4.94474467e-02
 -4.66545667e-02 -2.95819291e-02  7.86709913e-02  8.87994746e-02
  2.90994079e-01  5.07365471e-01  5.40594200e-01  6.50958681e-01
  6.60162198e-01  6.63377270e-01  1.65926486e+00  1.81724102e+00
  1.88138770e+00  2.12430078e+00  2.15270341e+00  2.16245894e+00
  5.69855624e+00  5.75463185e+00  5.77366005e+00  5.82812653e+00
  5.90517394e+00  7.27326791e+00  1.96347097e+01  1.96971911e+01
  2.67424681e+01  7.83289884e+01  7.83595185e+01  9.10746961e+01
  3.80637886e+02]
beta-B1g nocc = 0
   mo_energy = [-4.73435761e-02  8.61405050e-02  5.31701807e-01  6.56271588e-01
  6.62560749e-01  1.86431196e+00  2.14073779e+00  2.16000083e+00
  5.73113882e+00  5.76888617e+00  5.88555045e+00  1.96814979e+01
  7.83518847e+01]
beta-B2g nocc = 0
   mo_energy = [-4.73435761e-02  8.61405050e-02  5.31701807e-01  6.56271588e-01
  6.62560749e-01  1.86431196e+00  2.14073779e+00  2.16000083e+00
  5.73113882e+00  5.76888617e+00  5.88555045e+00  1.96814979e+01
  7.83518847e+01]
beta-B3g nocc = 0
   mo_energy = [-4.94474467e-02  7.86709913e-02  5.07365471e-01  6.50958681e-01
  6.60162198e-01  1.81724102e+00  2.12430078e+00  2.15270341e+00
  5.69855624e+00  5.75463185e+00  5.82812653e+00  1.96347097e+01
  7.83289884e+01]
beta-Au nocc = 0
   mo_energy = [ 0.11948852  0.63846408  2.01416356  6.06374917 24.81755591]
beta-B1u nocc = 0
   mo_energy = [-3.40333756e-01 -8.54476222e-02 -2.84017840e-02  1.16791439e-01
  1.21113410e-01  2.08463400e-01  6.27915068e-01  6.44915044e-01
  1.20003264e+00  1.98601216e+00  2.03154159e+00  4.53772421e+00
  6.01786443e+00  6.09182544e+00  1.49586047e+01  2.47777989e+01
  2.48415118e+01  4.93897618e+01  1.66681623e+02]
beta-B2u nocc = 0
   mo_energy = [-3.40333756e-01 -8.54476222e-02 -2.84017840e-02  1.16791439e-01
  1.21113410e-01  2.08463400e-01  6.27915068e-01  6.44915044e-01
  1.20003264e+00  1.98601216e+00  2.03154159e+00  4.53772421e+00
  6.01786443e+00  6.09182544e+00  1.49586047e+01  2.47777989e+01
  2.48415118e+01  4.93897618e+01  1.66681623e+02]
beta-B3u nocc = 0
   mo_energy = [-2.73701002e-01 -7.99752219e-02 -2.22578278e-02  1.19488521e-01
  1.21666070e-01  2.34347862e-01  6.38464084e-01  6.47098400e-01
  1.25260562e+00  2.01416356e+00  2.03743748e+00  4.60633368e+00
  6.06374917e+00  6.10129368e+00  1.50204832e+01  2.48175559e+01
  2.48495145e+01  4.94284230e+01  1.66699220e+02]
multiplicity <S^2> = 0.75667108  2S+1 = 2.00666
E1 = -47.57179697998204  Ecoul = 10.275269958501585
Extra cycle  E= -37.2965270214805  delta_E= -2.13e-14  |g|= 8.02e-13  |ddm|= 9.33e-13
    CPU time for scf_cycle     23.41 sec, wall time      5.96 sec
    CPU time for SCF     23.42 sec, wall time      5.97 sec
converged SCF energy = -37.2965270214805  <S^2> = 0.75667108  2S+1 = 2.00666
irreps of each MO ['Ag' 'Ag' 'B3u' 'B1u' 'B2u' 'Ag' 'B3u' 'B1u' 'B2u' 'Ag' 'B3g' 'B1g' 'B2g'
 'Ag' 'B3u' 'Ag' 'B1u' 'B2u' 'Ag' 'B3g' 'B1g' 'B2g' 'Ag' 'B1u' 'B2u' 'Au'
 'B3u' 'B1u' 'B2u' 'B3u' 'B3u' 'B1u' 'B2u' 'Ag' 'Ag' 'B1g' 'B2g' 'Ag'
 'B3g' 'B1u' 'B2u' 'Au' 'B3u' 'B1u' 'B2u' 'B3u' 'Ag' 'B3g' 'B1g' 'B2g'
 'Ag' 'B3g' 'B1g' 'B2g' 'Ag' 'B3u' 'B1u' 'B2u' 'Ag' 'Ag' 'B1g' 'B2g' 'Ag'
 'B3g' 'B1u' 'B2u' 'Au' 'B3u' 'B1u' 'B2u' 'B3u' 'Ag' 'B3g' 'B1g' 'B2g'
 'Ag' 'B3g' 'B1g' 'B2g' 'Ag' 'B3u' 'B1u' 'B2u' 'Ag' 'B3g' 'B1g' 'B2g' 'Ag'
 'B3g' 'B1g' 'B2g' 'Ag' 'Ag' 'B3g' 'B1g' 'B2g' 'Ag' 'B1u' 'B2u' 'Au' 'B3u'
 'B1u' 'B2u' 'B3u' 'Ag' 'B1u' 'B2u' 'B3u' 'Ag' 'B3g' 'B1g' 'B2g' 'Ag'
 'B1u' 'B2u' 'Au' 'B3u' 'B1u' 'B2u' 'B3u' 'Ag' 'B1u' 'B2u' 'B3u' 'Ag'
 'B3g' 'B1g' 'B2g' 'Ag' 'Ag' 'B1u' 'B2u' 'B3u' 'Ag']
irreps of each MO ['Ag' 'Ag' 'B1u' 'B2u' 'B3u' 'Ag' 'B1u' 'B2u' 'B3u' 'Ag' 'B3g' 'B1g' 'B2g'
 'Ag' 'Ag' 'B1u' 'B2u' 'B3u' 'Ag' 'B3g' 'B1g' 'B2g' 'Ag' 'B1u' 'B2u' 'Au'
 'B3u' 'B1u' 'B2u' 'B3u' 'B1u' 'B2u' 'B3u' 'Ag' 'Ag' 'B3g' 'B1g' 'B2g'
 'Ag' 'B1u' 'B2u' 'Au' 'B3u' 'B1u' 'B2u' 'B3u' 'Ag' 'B3g' 'B1g' 'B2g' 'Ag'
 'B3g' 'B1g' 'B2g' 'Ag' 'B1u' 'B2u' 'B3u' 'Ag' 'Ag' 'B3g' 'B1g' 'B2g' 'Ag'
 'B1u' 'B2u' 'Au' 'B3u' 'B1u' 'B2u' 'B3u' 'Ag' 'B3g' 'B1g' 'B2g' 'Ag'
 'B3g' 'B1g' 'B2g' 'Ag' 'B1u' 'B2u' 'B3u' 'Ag' 'B3g' 'B1g' 'B2g' 'Ag'
 'B3g' 'B1g' 'B2g' 'Ag' 'Ag' 'B3g' 'B1g' 'B2g' 'Ag' 'B1u' 'B2u' 'Au' 'B3u'
 'B1u' 'B2u' 'B3u' 'Ag' 'B1u' 'B2u' 'B3u' 'Ag' 'B3g' 'B1g' 'B2g' 'Ag'
 'B1u' 'B2u' 'Au' 'B3u' 'B1u' 'B2u' 'B3u' 'Ag' 'B1u' 'B2u' 'B3u' 'Ag'
 'B3g' 'B1g' 'B2g' 'Ag' 'Ag' 'B1u' 'B2u' 'B3u' 'Ag']
irreps of each MO ['Ag' 'Ag' 'B3u' 'B2u' 'B1u' 'Ag' 'B1u' 'B2u' 'B3u' 'Ag' 'B3g' 'B1g' 'B2g'
 'Ag' 'Ag' 'B1u' 'B2u' 'B3u' 'Ag' 'B3g' 'B2g' 'B1g' 'Ag' 'B2u' 'B1u' 'Au'
 'B3u' 'B1u' 'B2u' 'B3u' 'B3u' 'B2u' 'B1u' 'Ag' 'Ag' 'B2g' 'B1g' 'Ag'
 'B3g' 'B1u' 'B2u' 'Au' 'B3u' 'B1u' 'B2u' 'B3u' 'Ag' 'B3g' 'B1g' 'B2g'
 'B3g' 'Ag' 'B2g' 'B1g' 'Ag' 'B3u' 'B2u' 'B1u' 'Ag' 'Ag' 'B1g' 'B2g' 'B3g'
 'Ag' 'B1u' 'B2u' 'Au' 'B3u' 'B1u' 'B2u' 'B3u' 'B3g' 'Ag' 'B1g' 'B2g'
 'B3g' 'Ag' 'B2g' 'B1g' 'Ag' 'B3u' 'B2u' 'B1u' 'B3g' 'Ag' 'B1g' 'B2g'
 'B3g' 'Ag' 'B1g' 'B2g' 'Ag' 'Ag' 'B3g' 'B1g' 'B2g' 'Ag' 'B2u' 'B1u' 'Au'
 'B3u' 'B2u' 'B1u' 'B3u' 'Ag' 'B2u' 'B1u' 'B3u' 'Ag' 'B3g' 'B2g' 'B1g'
 'Ag' 'B2u' 'B1u' 'Au' 'B3u' 'B2u' 'B1u' 'B3u' 'Ag' 'B2u' 'B1u' 'B3u' 'Ag'
 'B3g' 'B1g' 'B2g' 'Ag' 'Ag' 'B2u' 'B1u' 'B3u' 'Ag']
