#INFO: **** input file is /lustre09/project/6004934/jaafar1/PySCF-MRCC/Nitrogen/AE/neutral/dawCV2Z/UHF/input.py ****
import pyscf
from pyscf import cc, lib, tools, scf, symm, ao2mo
from pyscf.gto.basis import parse_gaussian
from pyscf.scf import atom_hf

name = 'out'
mol = pyscf.M(
    atom = '''
        N
    ''',
    unit = 'angstrom',
    basis = {
            'N' : parse_gaussian.load('N-d-aug-cc-pwCVDZ.gbs', 'N')
    },
    charge = 0,
    spin = 3,
    symmetry = True,
    verbose = 9,
    symmetry_subgroup = 'D2h',
    output = name +'.txt',
    max_memory = 8000,
)

original_AtomSphAverageRHF = atom_hf.AtomSphAverageRHF

class CustomAtomSphAverageRHF(original_AtomSphAverageRHF):
    def __init__(self, mol):
        super().__init__(mol)
        self.max_cycle = 9999
        self.direct_scf = False

atom_hf.AtomSphAverageRHF = CustomAtomSphAverageRHF

mf = mol.UHF().set(
    conv_tol=1e-15,
    max_cycle=9999,
    ddm_tol=1e-14,
    direct_scf=False,
    chkfile=name + '.chk',
    init_guess='atom',
    irrep_nelec={'Ag': 4, 'B3u': 1, 'B2u': 1, 'B1u': 1}
)

mf.kernel()

atom_hf.AtomSphAverageRHF = original_AtomSphAverageRHF

#pyscf.tools.fcidump.from_chkfile_uhf('FCIdump',name+'.chk',tol=1e-18, float_format='% 0.20E',molpro_orbsym=False,orbsym=None)
pyscf.tools.fcidump.from_scf_uhf(mf,'fort.55',tol=1e-18, float_format='% 0.20E',molpro_orbsym=False)
#MRCCInterface.run_mrcc(mf, fort_file='fort.55', mrcc_input_file='MINP', tol=1e-18, float_format='% 0.20E', molpro_orbsym=False)
#INFO: ******************** input file end ********************


System: uname_result(system='Linux', node='rc32502', release='5.14.0-687.15.1.el9_8.x86_64', version='#1 SMP PREEMPT_DYNAMIC Thu Jun 11 08:51:45 EDT 2026', machine='x86_64')  Threads 4
Python 3.13.2 (main, Feb  5 2025, 15:06:39) [GCC 13.3.0]
numpy 2.2.2  scipy 1.15.1  h5py 3.13.0
Date: Mon Jun 22 06:02:14 2026
PySCF version 2.10.0
PySCF path  /home/jaafar1/links/projects/rrg-tzeng/jaafar1/VENV/MRCCInterface/lib/python3.13/site-packages/pyscf

[CONFIG] ARGPARSE = False
[CONFIG] DEBUG = False
[CONFIG] MAX_MEMORY = 4000
[CONFIG] TMPDIR = /tmp
[CONFIG] UNIT = angstrom
[CONFIG] VERBOSE = 3
[CONFIG] conf_file = None
[INPUT] verbose = 9
[INPUT] max_memory = 8000 
[INPUT] num. atoms = 1
[INPUT] num. electrons = 7
[INPUT] charge = 0
[INPUT] spin (= nelec alpha-beta = 2S) = 3
[INPUT] symmetry True subgroup D2h
[INPUT] Mole.unit = angstrom
[INPUT] Symbol           X                Y                Z      unit          X                Y                Z       unit  Magmom
[INPUT]  1 N      0.000000000000   0.000000000000   0.000000000000 AA    0.000000000000   0.000000000000   0.000000000000 Bohr   0.0
[INPUT] ---------------- BASIS SET ---------------- 
[INPUT] l, kappa, [nprim/nctr], expnt,             c_1 c_2 ...
[INPUT] N
[INPUT] 0    0    [9    /2   ]  9046              0.0007 -0.000153
                                1357              0.005389 -0.001208
                                309.3             0.027406 -0.005992
                                87.73             0.103207 -0.024544
                                28.56             0.278723 -0.067459
                                10.21             0.44854 -0.158078
                                3.838             0.278238 -0.121831
                                0.7466            0.01544 0.549003
                                0.2248            -0.002864 0.578815
[INPUT] 0    0    [1    /1   ]  4.32                 1
[INPUT] 0    0    [1    /1   ]  0.2248               1
[INPUT] 0    0    [1    /1   ]  0.06124              1
[INPUT] 0    0    [1    /1   ]  0.0167               1
[INPUT] 1    0    [1    /1   ]  10.239               1
[INPUT] 1    0    [4    /1   ]  13.55             0.039919
                                2.917             0.217169
                                0.7973            0.510319
                                0.2185            0.462214
[INPUT] 1    0    [1    /1   ]  0.2185               1
[INPUT] 1    0    [1    /1   ]  0.05611              1
[INPUT] 1    0    [1    /1   ]  0.0144               1
[INPUT] 2    0    [1    /1   ]  0.817                1
[INPUT] 2    0    [1    /1   ]  0.23                 1
[INPUT] 2    0    [1    /1   ]  0.0647               1

nuclear repulsion = 0
point group symmetry = SO3, use subgroup D2h
symmetry origin: [0. 0. 0.]
symmetry axis x: [1. 0. 0.]
symmetry axis y: [0. 1. 0.]
symmetry axis z: [0. 0. 1.]
num. orbitals of irrep Ag = 12
num. orbitals of irrep B1g = 3
num. orbitals of irrep B2g = 3
num. orbitals of irrep B3g = 3
num. orbitals of irrep B1u = 5
num. orbitals of irrep B2u = 5
num. orbitals of irrep B3u = 5
number of shells = 13
number of NR pGTOs = 52
number of NR cGTOs = 36
basis = {'N': [[0, [9046.0, 0.0007, -0.000153], [1357.0, 0.005389, -0.001208], [309.3, 0.027406, -0.005992], [87.73, 0.103207, -0.024544], [28.56, 0.278723, -0.067459], [10.21, 0.44854, -0.158078], [3.838, 0.278238, -0.121831], [0.7466, 0.01544, 0.549003], [0.2248, -0.002864, 0.578815]], [0, [4.32, 1.0]], [0, [0.2248, 1.0]], [0, [0.06124, 1.0]], [0, [0.0167, 1.0]], [1, [10.239, 1.0]], [1, [13.55, 0.039919], [2.917, 0.217169], [0.7973, 0.510319], [0.2185, 0.462214]], [1, [0.2185, 1.0]], [1, [0.05611, 1.0]], [1, [0.0144, 1.0]], [2, [0.817, 1.0]], [2, [0.23, 1.0]], [2, [0.0647, 1.0]]]}
ecp = {}
bas 0, expnt(s) = [9.046e+03 1.357e+03 3.093e+02 8.773e+01 2.856e+01 1.021e+01 3.838e+00
 7.466e-01 2.248e-01]
bas 1, expnt(s) = [4.32]
bas 2, expnt(s) = [0.2248]
bas 3, expnt(s) = [0.06124]
bas 4, expnt(s) = [0.0167]
bas 5, expnt(s) = [10.239]
bas 6, expnt(s) = [13.55    2.917   0.7973  0.2185]
bas 7, expnt(s) = [0.2185]
bas 8, expnt(s) = [0.05611]
bas 9, expnt(s) = [0.0144]
bas 10, expnt(s) = [0.817]
bas 11, expnt(s) = [0.23]
bas 12, expnt(s) = [0.0647]
CPU time:         1.66
arg.atm = [[ 7 20  1 23  0  0]]
arg.bas = [[ 0  0  9  2  0 24 33  0]
 [ 0  0  1  1  0 51 52  0]
 [ 0  0  1  1  0 53 54  0]
 [ 0  0  1  1  0 55 56  0]
 [ 0  0  1  1  0 57 58  0]
 [ 0  1  1  1  0 59 60  0]
 [ 0  1  4  1  0 61 65  0]
 [ 0  1  1  1  0 69 70  0]
 [ 0  1  1  1  0 71 72  0]
 [ 0  1  1  1  0 73 74  0]
 [ 0  2  1  1  0 75 76  0]
 [ 0  2  1  1  0 77 78  0]
 [ 0  2  1  1  0 79 80  0]]
arg.env = [ 0.00000000e+00  0.00000000e+00  0.00000000e+00  0.00000000e+00
  0.00000000e+00  0.00000000e+00  0.00000000e+00  0.00000000e+00
  0.00000000e+00  0.00000000e+00  0.00000000e+00  0.00000000e+00
  0.00000000e+00  0.00000000e+00  0.00000000e+00  0.00000000e+00
  0.00000000e+00  0.00000000e+00  0.00000000e+00  0.00000000e+00
  0.00000000e+00  0.00000000e+00  0.00000000e+00  0.00000000e+00
  9.04600000e+03  1.35700000e+03  3.09300000e+02  8.77300000e+01
  2.85600000e+01  1.02100000e+01  3.83800000e+00  7.46600000e-01
  2.24800000e-01  1.64042177e+00  3.04409439e+00  5.10676225e+00
  7.47455423e+00  8.69974465e+00  6.47270078e+00  1.92757026e+00
  3.13312939e-02 -2.36230130e-03 -3.58549285e-01 -6.82365109e-01
 -1.11653344e+00 -1.77754839e+00 -2.10558871e+00 -2.28115991e+00
 -8.44017650e-01  1.11405261e+00  4.77421529e-01  4.32000000e+00
  7.57055701e+00  2.24800000e-01  8.24825833e-01  6.12400000e-02
  3.11022216e-01  1.67000000e-02  1.17368723e-01  1.02390000e+01
  5.34326017e+01  1.35500000e+01  2.91700000e+00  7.97300000e-01
  2.18500000e-01  3.02752891e+00  2.41519886e+00  1.12163995e+00
  2.01438243e-01  2.18500000e-01  4.35811508e-01  5.61100000e-02
  7.96681493e-02  1.44000000e-02  1.45524966e-02  8.17000000e-01
  1.83196843e+00  2.30000000e-01  1.99321019e-01  6.47000000e-02
  2.16576772e-02]
ecpbas  = []


******** <class 'pyscf.scf.uhf_symm.SymAdaptedUHF'> ********
method = SymAdaptedUHF
initial guess = atom
damping factor = 0
level_shift factor = 0
DIIS = <class 'pyscf.scf.diis.CDIIS'>
diis_start_cycle = 1
diis_space = 8
diis_damp = 0
SCF conv_tol = 1e-15
SCF conv_tol_grad = None
SCF ddm_tol = 1e-14
SCF max_cycles = 9999
direct_scf = False
chkfile to save SCF result = out.chk
max_memory 8000 MB (current use 124 MB)
number electrons alpha = 5  beta = 2
irrep_nelec {'Ag': 4, 'B3u': 1, 'B2u': 1, 'B1u': 1}
Freeze 7 electrons in irreps ['Ag', 'B3u', 'B2u', 'B1u']
    0 free electrons in irreps B1g B2g B3g
cond(S) = 155.1081933172893

WARN: Singularity detected in overlap matrix (condition number =  155). SCF may be inaccurate and hard to converge.

Set gradient conv threshold to 3.16228e-08
Spherically averaged atomic HF for {'N'}


******** <class '__main__.CustomAtomSphAverageRHF'> ********
method = CustomAtomSphAverageRHF
initial guess = minao
damping factor = 0
level_shift factor = 0
DIIS = <class 'pyscf.scf.diis.CDIIS'>
diis_start_cycle = 1
diis_space = 8
diis_damp = 0
SCF conv_tol = 1e-09
SCF conv_tol_grad = None
SCF ddm_tol = 1e-10
SCF max_cycles = 9999
direct_scf = False
chkfile to save SCF result = /tmp/tmpjnjungh3
max_memory 8000 MB (current use 125 MB)
atom = N
Set gradient conv threshold to 3.16228e-05
Initial guess from minao.
Nelec from initial guess = 6.998837350243671
E1 = -74.24741462608397  E_coul = 20.465748482715753
init E= -53.7816661433682
l = 0  e_0 = -15.5351343
l = 0  e_1 = -0.913883804
l = 0  e_2 = 0.0301529431
l = 0  e_3 = 0.221266381
l = 0  e_4 = 1.40648406
l = 0  e_5 = 16.487683
l = 1  e_0 = -0.165930655
l = 1  e_1 = 0.0361925003
l = 1  e_2 = 0.215430747
l = 1  e_3 = 1.15636825
l = 1  e_4 = 14.7397241
l = 2  e_0 = 0.213162951
l = 2  e_1 = 0.807466588
l = 2  e_2 = 2.57879634
    CPU time for initialize scf      0.09 sec, wall time      0.10 sec
l = 0  e_0 = -15.5351343
l = 0  e_1 = -0.913883804
l = 0  e_2 = 0.0301529431
l = 0  e_3 = 0.221266381
l = 0  e_4 = 1.40648406
l = 0  e_5 = 16.487683
l = 1  e_0 = -0.165930655
l = 1  e_1 = 0.0361925003
l = 1  e_2 = 0.215430747
l = 1  e_3 = 1.15636825
l = 1  e_4 = 14.7397241
l = 2  e_0 = 0.213162951
l = 2  e_1 = 0.807466588
l = 2  e_2 = 2.57879634
l = 0  occ = 2 + 0
l = 1  occ = 0 + 1
l = 2  occ = 0 + 0
l = 3  occ = 0 + 0
E1 = -72.53848901067897  E_coul = 18.708456306353618
cycle= 1 E= -53.8300327043254  delta_E= -0.0484  |g|=    0  |ddm|= 0.399
    CPU time for cycle= 1      0.00 sec, wall time      0.00 sec
diis-norm(errvec)=0.286728
diis-c [-0.0822131  1.       ]
l = 0  e_0 = -15.994709
l = 0  e_1 = -1.09890725
l = 0  e_2 = 0.0268115913
l = 0  e_3 = 0.195382937
l = 0  e_4 = 1.27002331
l = 0  e_5 = 16.0978662
l = 1  e_0 = -0.317747322
l = 1  e_1 = 0.0352341948
l = 1  e_2 = 0.196245114
l = 1  e_3 = 1.02329884
l = 1  e_4 = 14.3244672
l = 2  e_0 = 0.206972571
l = 2  e_1 = 0.754992855
l = 2  e_2 = 2.42147862
l = 0  occ = 2 + 0
l = 1  occ = 0 + 1
l = 2  occ = 0 + 0
l = 3  occ = 0 + 0
E1 = -73.44063158573184  E_coul = 19.600797100868398
cycle= 2 E= -53.8398344848634  delta_E= -0.0098  |g|=    0  |ddm|= 0.423
    CPU time for cycle= 2      0.01 sec, wall time      0.00 sec
diis-norm(errvec)=0.122821
diis-c [-0.00074377  0.29555784  0.70444216]
l = 0  e_0 = -15.8249981
l = 0  e_1 = -1.0365694
l = 0  e_2 = 0.0281067508
l = 0  e_3 = 0.204051952
l = 0  e_4 = 1.31596058
l = 0  e_5 = 16.239581
l = 1  e_0 = -0.261514499
l = 1  e_1 = 0.0357115807
l = 1  e_2 = 0.204002527
l = 1  e_3 = 1.07225476
l = 1  e_4 = 14.4773286
l = 2  e_0 = 0.209283938
l = 2  e_1 = 0.77394265
l = 2  e_2 = 2.47852472
l = 0  occ = 2 + 0
l = 1  occ = 0 + 1
l = 2  occ = 0 + 0
l = 3  occ = 0 + 0
E1 = -73.13590500800763  E_coul = 19.293050571566923
cycle= 3 E= -53.8428544364407  delta_E= -0.00302  |g|=    0  |ddm|= 0.0929
    CPU time for cycle= 3      0.01 sec, wall time      0.00 sec
diis-norm(errvec)=0.0115022
diis-c [-3.27616712e-06 -9.88941605e-02 -1.31404462e-01  1.23029862e+00]
l = 0  e_0 = -15.8310032
l = 0  e_1 = -1.04033908
l = 0  e_2 = 0.0280742898
l = 0  e_3 = 0.203637754
l = 0  e_4 = 1.31377827
l = 0  e_5 = 16.2343012
l = 1  e_0 = -0.263081522
l = 1  e_1 = 0.0357179832
l = 1  e_2 = 0.203957023
l = 1  e_3 = 1.07109974
l = 1  e_4 = 14.4720375
l = 2  e_0 = 0.209252473
l = 2  e_1 = 0.773415225
l = 2  e_2 = 2.47688529
l = 0  occ = 2 + 0
l = 1  occ = 0 + 1
l = 2  occ = 0 + 0
l = 3  occ = 0 + 0
E1 = -73.14818084843539  E_coul = 19.305309010983116
cycle= 4 E= -53.8428718374523  delta_E= -1.74e-05  |g|=    0  |ddm|= 0.022
    CPU time for cycle= 4      0.01 sec, wall time      0.00 sec
diis-norm(errvec)=0.00104907
diis-c [-4.43858951e-08 -6.11882888e-03 -4.76672494e-03  1.73394538e-02
  9.93546100e-01]
l = 0  e_0 = -15.8318017
l = 0  e_1 = -1.04082443
l = 0  e_2 = 0.0280479208
l = 0  e_3 = 0.203499529
l = 0  e_4 = 1.3133368
l = 0  e_5 = 16.2335367
l = 1  e_0 = -0.263417018
l = 1  e_1 = 0.0357105277
l = 1  e_2 = 0.203855406
l = 1  e_3 = 1.07069245
l = 1  e_4 = 14.4712659
l = 2  e_0 = 0.20920716
l = 2  e_1 = 0.773201432
l = 2  e_2 = 2.47640973
l = 0  occ = 2 + 0
l = 1  occ = 0 + 1
l = 2  occ = 0 + 0
l = 3  occ = 0 + 0
E1 = -73.15018489341392  E_coul = 19.307312878014535
cycle= 5 E= -53.8428720153994  delta_E= -1.78e-07  |g|=    0  |ddm|= 0.00159
    CPU time for cycle= 5      0.01 sec, wall time      0.00 sec
diis-norm(errvec)=3.20909e-05
diis-c [-6.89131453e-11  5.41316857e-04  1.49628442e-04 -1.07536288e-03
 -1.37540345e-01  1.13792476e+00]
l = 0  e_0 = -15.8318019
l = 0  e_1 = -1.04083722
l = 0  e_2 = 0.0280455336
l = 0  e_3 = 0.203490667
l = 0  e_4 = 1.31332093
l = 0  e_5 = 16.2335316
l = 1  e_0 = -0.263424143
l = 1  e_1 = 0.0357100592
l = 1  e_2 = 0.203849578
l = 1  e_3 = 1.07067786
l = 1  e_4 = 14.4712629
l = 2  e_0 = 0.209203104
l = 2  e_1 = 0.773189679
l = 2  e_2 = 2.47639303
l = 0  occ = 2 + 0
l = 1  occ = 0 + 1
l = 2  occ = 0 + 0
l = 3  occ = 0 + 0
E1 = -73.15018659109487  E_coul = 19.307314575327787
cycle= 6 E= -53.8428720157671  delta_E= -3.68e-10  |g|=    0  |ddm|= 5.06e-05
    CPU time for cycle= 6      0.00 sec, wall time      0.00 sec
diis-norm(errvec)=1.25688e-06
diis-c [-2.63457458e-13 -1.40062449e-05  2.97954994e-05 -2.43283548e-04
  1.04492355e-02 -1.04946308e-01  1.09472457e+00]
l = 0  e_0 = -15.8318031
l = 0  e_1 = -1.04083831
l = 0  e_2 = 0.0280454606
l = 0  e_3 = 0.203490566
l = 0  e_4 = 1.3133206
l = 0  e_5 = 16.2335306
l = 1  e_0 = -0.263424907
l = 1  e_1 = 0.0357100604
l = 1  e_2 = 0.203849541
l = 1  e_3 = 1.07067748
l = 1  e_4 = 14.4712618
l = 2  e_0 = 0.209202985
l = 2  e_1 = 0.773189375
l = 2  e_2 = 2.47639243
l = 0  occ = 2 + 0
l = 1  occ = 0 + 1
l = 2  occ = 0 + 0
l = 3  occ = 0 + 0
E1 = -73.1501860757328  E_coul = 19.307314059964227
cycle= 7 E= -53.8428720157686  delta_E= -1.5e-12  |g|=    0  |ddm|= 1.09e-06
    CPU time for cycle= 7      0.01 sec, wall time      0.00 sec
diis-norm(errvec)=8.961e-08
diis-c [-9.16717794e-16  9.98876285e-07 -3.66971050e-06  3.39566238e-05
 -1.15583734e-03  1.13679656e-02 -1.46770007e-01  1.13652659e+00]
l = 0  e_0 = -15.8318032
l = 0  e_1 = -1.04083834
l = 0  e_2 = 0.0280454534
l = 0  e_3 = 0.203490553
l = 0  e_4 = 1.31332056
l = 0  e_5 = 16.2335305
l = 1  e_0 = -0.263424942
l = 1  e_1 = 0.035710059
l = 1  e_2 = 0.203849529
l = 1  e_3 = 1.07067744
l = 1  e_4 = 14.4712617
l = 2  e_0 = 0.209202976
l = 2  e_1 = 0.773189351
l = 2  e_2 = 2.47639239
l = 0  occ = 2 + 0
l = 1  occ = 0 + 1
l = 2  occ = 0 + 0
l = 3  occ = 0 + 0
E1 = -73.15018613457146  E_coul = 19.307314118802893
cycle= 8 E= -53.8428720157686  delta_E= 1.42e-14  |g|=    0  |ddm|= 9.67e-08
    CPU time for cycle= 8      0.01 sec, wall time      0.00 sec
diis-norm(errvec)=4.10957e-09
Linear dependence found in DIIS error vectors.
diis-c [-2.76256133e-16  4.98679325e-07 -1.66587571e-06  1.53951098e-05
 -5.38425734e-04  5.29208316e-03 -6.65699053e-02  4.92976973e-01
  5.68825047e-01]
l = 0  e_0 = -15.8318032
l = 0  e_1 = -1.04083835
l = 0  e_2 = 0.0280454534
l = 0  e_3 = 0.203490553
l = 0  e_4 = 1.31332056
l = 0  e_5 = 16.2335305
l = 1  e_0 = -0.263424942
l = 1  e_1 = 0.035710059
l = 1  e_2 = 0.203849529
l = 1  e_3 = 1.07067744
l = 1  e_4 = 14.4712617
l = 2  e_0 = 0.209202976
l = 2  e_1 = 0.773189351
l = 2  e_2 = 2.47639239
l = 0  occ = 2 + 0
l = 1  occ = 0 + 1
l = 2  occ = 0 + 0
l = 3  occ = 0 + 0
E1 = -73.15018613491154  E_coul = 19.307314119143015
cycle= 9 E= -53.8428720157685  delta_E= 4.26e-14  |g|=    0  |ddm|= 2.26e-09
    CPU time for cycle= 9      0.01 sec, wall time      0.00 sec
diis-norm(errvec)=2.08606e-09
Linear dependence found in DIIS error vectors.
diis-c [-6.74211937e-16  3.62686970e-01 -1.26042620e-06  1.13692529e-05
 -2.88691746e-04  2.94338315e-03 -4.13006837e-02  3.14085493e-01
  3.61863420e-01]
l = 0  e_0 = -15.8318032
l = 0  e_1 = -1.04083835
l = 0  e_2 = 0.0280454534
l = 0  e_3 = 0.203490553
l = 0  e_4 = 1.31332056
l = 0  e_5 = 16.2335305
l = 1  e_0 = -0.263424942
l = 1  e_1 = 0.035710059
l = 1  e_2 = 0.203849529
l = 1  e_3 = 1.07067744
l = 1  e_4 = 14.4712617
l = 2  e_0 = 0.209202976
l = 2  e_1 = 0.773189351
l = 2  e_2 = 2.47639239
l = 0  occ = 2 + 0
l = 1  occ = 0 + 1
l = 2  occ = 0 + 0
l = 3  occ = 0 + 0
E1 = -73.15018613271981  E_coul = 19.30731411695128
cycle= 10 E= -53.8428720157685  delta_E= -1.42e-14  |g|=    0  |ddm|= 6.67e-10
    CPU time for cycle= 10      0.01 sec, wall time      0.00 sec
diis-norm(errvec)=2.07128e-09
Linear dependence found in DIIS error vectors.
diis-c [-2.06525755e-16  2.56908345e-01  2.56987092e-01  9.62932622e-07
 -1.81415294e-05  2.48908658e-04 -1.34432093e-02  2.42491470e-01
  2.56824572e-01]
l = 0  e_0 = -15.8318032
l = 0  e_1 = -1.04083835
l = 0  e_2 = 0.0280454534
l = 0  e_3 = 0.203490553
l = 0  e_4 = 1.31332056
l = 0  e_5 = 16.2335305
l = 1  e_0 = -0.263424943
l = 1  e_1 = 0.035710059
l = 1  e_2 = 0.203849529
l = 1  e_3 = 1.07067744
l = 1  e_4 = 14.4712617
l = 2  e_0 = 0.209202976
l = 2  e_1 = 0.773189351
l = 2  e_2 = 2.47639239
l = 0  occ = 2 + 0
l = 1  occ = 0 + 1
l = 2  occ = 0 + 0
l = 3  occ = 0 + 0
E1 = -73.15018613667897  E_coul = 19.30731412091045
cycle= 11 E= -53.8428720157685  delta_E= 1.42e-14  |g|=    0  |ddm|= 2.46e-09
    CPU time for cycle= 11      0.01 sec, wall time      0.00 sec
diis-norm(errvec)=2.03422e-09
Linear dependence found in DIIS error vectors.
diis-c [-1.40608287e-16  2.04448331e-01  2.04511542e-01  2.04359397e-01
 -6.26490431e-06  1.89634845e-04 -1.08745538e-02  1.92990647e-01
  2.04381266e-01]
l = 0  e_0 = -15.8318032
l = 0  e_1 = -1.04083835
l = 0  e_2 = 0.0280454534
l = 0  e_3 = 0.203490553
l = 0  e_4 = 1.31332056
l = 0  e_5 = 16.2335305
l = 1  e_0 = -0.263424943
l = 1  e_1 = 0.035710059
l = 1  e_2 = 0.203849529
l = 1  e_3 = 1.07067744
l = 1  e_4 = 14.4712617
l = 2  e_0 = 0.209202975
l = 2  e_1 = 0.773189351
l = 2  e_2 = 2.47639239
l = 0  occ = 2 + 0
l = 1  occ = 0 + 1
l = 2  occ = 0 + 0
l = 3  occ = 0 + 0
E1 = -73.15018613942429  E_coul = 19.30731412365575
cycle= 12 E= -53.8428720157685  delta_E= -2.13e-14  |g|=    0  |ddm|= 3.16e-09
    CPU time for cycle= 12      0.01 sec, wall time      0.00 sec
diis-norm(errvec)=2.47657e-09
Linear dependence found in DIIS error vectors.
diis-c [-1.46404312e-16  1.70224124e-01  1.70237998e-01  1.70202115e-01
  1.70321616e-01  1.00588759e-04 -1.03943029e-02  1.59175505e-01
  1.70132356e-01]
l = 0  e_0 = -15.8318032
l = 0  e_1 = -1.04083835
l = 0  e_2 = 0.0280454533
l = 0  e_3 = 0.203490553
l = 0  e_4 = 1.31332056
l = 0  e_5 = 16.2335305
l = 1  e_0 = -0.263424944
l = 1  e_1 = 0.035710059
l = 1  e_2 = 0.203849529
l = 1  e_3 = 1.07067744
l = 1  e_4 = 14.4712617
l = 2  e_0 = 0.209202975
l = 2  e_1 = 0.77318935
l = 2  e_2 = 2.47639239
l = 0  occ = 2 + 0
l = 1  occ = 0 + 1
l = 2  occ = 0 + 0
l = 3  occ = 0 + 0
E1 = -73.15018614312841  E_coul = 19.307314127359888
cycle= 13 E= -53.8428720157685  delta_E= 2.13e-14  |g|=    0  |ddm|= 1.61e-09
    CPU time for cycle= 13      0.00 sec, wall time      0.00 sec
diis-norm(errvec)=3.76209e-09
Linear dependence found in DIIS error vectors.
diis-c [-1.17435509e-16  1.44997685e-01  1.44962419e-01  1.45026169e-01
  1.45139392e-01  1.45282705e-01 -7.21883020e-03  1.36852321e-01
  1.44958139e-01]
l = 0  e_0 = -15.8318032
l = 0  e_1 = -1.04083835
l = 0  e_2 = 0.0280454533
l = 0  e_3 = 0.203490553
l = 0  e_4 = 1.31332056
l = 0  e_5 = 16.2335305
l = 1  e_0 = -0.263424944
l = 1  e_1 = 0.035710059
l = 1  e_2 = 0.203849529
l = 1  e_3 = 1.07067744
l = 1  e_4 = 14.4712617
l = 2  e_0 = 0.209202975
l = 2  e_1 = 0.773189351
l = 2  e_2 = 2.47639239
l = 0  occ = 2 + 0
l = 1  occ = 0 + 1
l = 2  occ = 0 + 0
l = 3  occ = 0 + 0
E1 = -73.15018614125063  E_coul = 19.307314125482094
cycle= 14 E= -53.8428720157685  delta_E= -1.42e-14  |g|=    0  |ddm|= 4.08e-10
    CPU time for cycle= 14      0.01 sec, wall time      0.00 sec
diis-norm(errvec)=3.09988e-09
Linear dependence found in DIIS error vectors.
diis-c [-3.11228916e-17  1.25000000e-01  1.25000000e-01  1.25000000e-01
  1.25000000e-01  1.25000000e-01  1.25000000e-01  1.25000000e-01
  1.25000000e-01]
l = 0  e_0 = -15.8318032
l = 0  e_1 = -1.04083835
l = 0  e_2 = 0.0280454535
l = 0  e_3 = 0.203490553
l = 0  e_4 = 1.31332056
l = 0  e_5 = 16.2335305
l = 1  e_0 = -0.263424943
l = 1  e_1 = 0.035710059
l = 1  e_2 = 0.203849529
l = 1  e_3 = 1.07067744
l = 1  e_4 = 14.4712617
l = 2  e_0 = 0.209202976
l = 2  e_1 = 0.773189351
l = 2  e_2 = 2.47639239
l = 0  occ = 2 + 0
l = 1  occ = 0 + 1
l = 2  occ = 0 + 0
l = 3  occ = 0 + 0
E1 = -73.15018614184835  E_coul = 19.30731412607985
cycle= 15 E= -53.8428720157685  delta_E= 2.84e-14  |g|=    0  |ddm|= 3.46e-09
    CPU time for cycle= 15      0.01 sec, wall time      0.00 sec
diis-norm(errvec)=2.62684e-09
Linear dependence found in DIIS error vectors.
diis-c [-2.89052492e-16  1.25000000e-01  1.25000000e-01  1.25000000e-01
  1.25000000e-01  1.25000000e-01  1.25000000e-01  1.25000000e-01
  1.25000000e-01]
l = 0  e_0 = -15.8318032
l = 0  e_1 = -1.04083835
l = 0  e_2 = 0.0280454533
l = 0  e_3 = 0.203490553
l = 0  e_4 = 1.31332056
l = 0  e_5 = 16.2335305
l = 1  e_0 = -0.263424942
l = 1  e_1 = 0.035710059
l = 1  e_2 = 0.203849529
l = 1  e_3 = 1.07067744
l = 1  e_4 = 14.4712617
l = 2  e_0 = 0.209202975
l = 2  e_1 = 0.773189351
l = 2  e_2 = 2.47639239
l = 0  occ = 2 + 0
l = 1  occ = 0 + 1
l = 2  occ = 0 + 0
l = 3  occ = 0 + 0
E1 = -73.15018613468476  E_coul = 19.3073141189162
cycle= 16 E= -53.8428720157686  delta_E= -5.68e-14  |g|=    0  |ddm|= 2.12e-09
    CPU time for cycle= 16      0.01 sec, wall time      0.00 sec
diis-norm(errvec)=5.53035e-10
Linear dependence found in DIIS error vectors.
diis-c [-2.89052492e-16  1.25000000e-01  1.25000000e-01  1.25000000e-01
  1.25000000e-01  1.25000000e-01  1.25000000e-01  1.25000000e-01
  1.25000000e-01]
l = 0  e_0 = -15.8318032
l = 0  e_1 = -1.04083835
l = 0  e_2 = 0.0280454533
l = 0  e_3 = 0.203490553
l = 0  e_4 = 1.31332056
l = 0  e_5 = 16.2335305
l = 1  e_0 = -0.263424942
l = 1  e_1 = 0.035710059
l = 1  e_2 = 0.203849529
l = 1  e_3 = 1.07067744
l = 1  e_4 = 14.4712617
l = 2  e_0 = 0.209202975
l = 2  e_1 = 0.773189351
l = 2  e_2 = 2.47639239
l = 0  occ = 2 + 0
l = 1  occ = 0 + 1
l = 2  occ = 0 + 0
l = 3  occ = 0 + 0
E1 = -73.1501861345903  E_coul = 19.307314118821765
cycle= 17 E= -53.8428720157685  delta_E= 2.84e-14  |g|=    0  |ddm|= 7.03e-11
    CPU time for cycle= 17      0.01 sec, wall time      0.00 sec
l = 0  e_0 = -15.8318032
l = 0  e_1 = -1.04083835
l = 0  e_2 = 0.0280454533
l = 0  e_3 = 0.203490553
l = 0  e_4 = 1.31332056
l = 0  e_5 = 16.2335305
l = 1  e_0 = -0.263424943
l = 1  e_1 = 0.035710059
l = 1  e_2 = 0.203849529
l = 1  e_3 = 1.07067744
l = 1  e_4 = 14.4712617
l = 2  e_0 = 0.209202975
l = 2  e_1 = 0.773189351
l = 2  e_2 = 2.47639239
l = 0  occ = 2 + 0
l = 1  occ = 0 + 1
l = 2  occ = 0 + 0
l = 3  occ = 0 + 0
E1 = -73.15018613609497  E_coul = 19.307314120326467
Extra cycle  E= -53.8428720157685  delta_E= 2.84e-14  |g|=    0  |ddm|= 7.03e-11
    CPU time for scf_cycle      0.23 sec, wall time      0.13 sec
    CPU time for SCF      0.23 sec, wall time      0.13 sec
Atomic HF for atom  N  converged. SCF energy = -53.8428720157685

Atom N, E = -53.8428720158
Nelec from initial guess = (np.float64(3.5000000000000036), np.float64(3.5000000000000036))
E1 = -73.15018613609497  Ecoul = 19.307314120326463
init E= -53.8428720157685
    CPU time for initialize scf      0.34 sec, wall time      0.19 sec
alpha HOMO (B1u) = -0.263424942579371  LUMO (Ag) = 0.0280454533156779
alpha irrep_nelec = [2, 0, 0, 0, 1, 1, 1]
beta  irrep_nelec = [2, 0, 0, 0, 0, 0, 0]
alpha-Ag nocc = 2  HOMO = -1.04083834627253  LUMO = 0.0280454533156779
   mo_energy = [-15.83180319  -1.04083835   0.02804545   0.20349055   0.20920298
   0.20920298   0.77318935   0.77318935   1.31332056   2.47639239
   2.47639239  16.23353053]
alpha-B1g nocc = 0
   mo_energy = [0.20920298 0.77318935 2.47639239]
alpha-B2g nocc = 0
   mo_energy = [0.20920298 0.77318935 2.47639239]
alpha-B3g nocc = 0
   mo_energy = [0.20920298 0.77318935 2.47639239]
alpha-B1u nocc = 1  HOMO = -0.263424942579371  LUMO = 0.0357100590111775
   mo_energy = [-0.26342494  0.03571006  0.20384953  1.07067744 14.47126169]
alpha-B2u nocc = 1  HOMO = -0.263424942579371  LUMO = 0.0357100590111774
   mo_energy = [-0.26342494  0.03571006  0.20384953  1.07067744 14.47126169]
alpha-B3u nocc = 1  HOMO = -0.263424942579371  LUMO = 0.0357100590111774
   mo_energy = [-0.26342494  0.03571006  0.20384953  1.07067744 14.47126169]
beta-Ag nocc = 2  HOMO = -1.04083834627253  LUMO = 0.0280454533156779
   mo_energy = [-15.83180319  -1.04083835   0.02804545   0.20349055   0.20920298
   0.20920298   0.77318935   0.77318935   1.31332056   2.47639239
   2.47639239  16.23353053]
beta-B1g nocc = 0
   mo_energy = [0.20920298 0.77318935 2.47639239]
beta-B2g nocc = 0
   mo_energy = [0.20920298 0.77318935 2.47639239]
beta-B3g nocc = 0
   mo_energy = [0.20920298 0.77318935 2.47639239]
beta-B1u nocc = 0
   mo_energy = [-0.26342494  0.03571006  0.20384953  1.07067744 14.47126169]
beta-B2u nocc = 0
   mo_energy = [-0.26342494  0.03571006  0.20384953  1.07067744 14.47126169]
beta-B3u nocc = 0
   mo_energy = [-0.26342494  0.03571006  0.20384953  1.07067744 14.47126169]
multiplicity <S^2> = 3.75  2S+1 = 4
E1 = -73.150186135281  Ecoul = 18.79301323437818
cycle= 1 E= -54.3571729009028  delta_E= -0.514  |g|= 0.181  |ddm|=  0.4
    CPU time for cycle= 1      0.03 sec, wall time      0.01 sec
diis-norm(errvec)=0.255487
diis-c [-0.06527362  1.        ]
alpha HOMO (B2u) = -0.615705158936226  LUMO (Ag) = 0.0255217610068038
alpha irrep_nelec = [2, 0, 0, 0, 1, 1, 1]
beta  irrep_nelec = [2, 0, 0, 0, 0, 0, 0]
alpha-Ag nocc = 2  HOMO = -1.23231367800663  LUMO = 0.0255217610068038
   mo_energy = [-15.86738778  -1.23231368   0.02552176   0.18755948   0.20423853
   0.20423853   0.73313879   0.73313879   1.26534939   2.40203838
   2.40203838  16.20050619]
alpha-B1g nocc = 0
   mo_energy = [0.20423853 0.73313879 2.40203838]
alpha-B2g nocc = 0
   mo_energy = [0.20423853 0.73313879 2.40203838]
alpha-B3g nocc = 0
   mo_energy = [0.20423853 0.73313879 2.40203838]
alpha-B1u nocc = 1  HOMO = -0.615705158936229  LUMO = 0.0345532338330705
   mo_energy = [-0.61570516  0.03455323  0.1862928   1.00412361 14.4301187 ]
alpha-B2u nocc = 1  HOMO = -0.615705158936226  LUMO = 0.0345532338330705
   mo_energy = [-0.61570516  0.03455323  0.1862928   1.00412361 14.4301187 ]
alpha-B3u nocc = 1  HOMO = -0.615705158936227  LUMO = 0.0345532338330705
   mo_energy = [-0.61570516  0.03455323  0.1862928   1.00412361 14.4301187 ]
beta-Ag nocc = 2  HOMO = -0.849683528060419  LUMO = 0.0301631440286279
   mo_energy = [-15.79651792  -0.84968353   0.03016314   0.21370566   0.21370566
   0.21930147   0.81216123   0.81216123   1.36238872   2.55228685
   2.55228685  16.26660386]
beta-B1g nocc = 0
   mo_energy = [0.21370566 0.81216123 2.55228685]
beta-B2g nocc = 0
   mo_energy = [0.21370566 0.81216123 2.55228685]
beta-B3g nocc = 0
   mo_energy = [0.21370566 0.81216123 2.55228685]
beta-B1u nocc = 0
   mo_energy = [ 0.0268728   0.06176418  0.24758065  1.14811341 14.51243334]
beta-B2u nocc = 0
   mo_energy = [ 0.0268728   0.06176418  0.24758065  1.14811341 14.51243334]
beta-B3u nocc = 0
   mo_energy = [ 0.0268728   0.06176418  0.24758065  1.14811341 14.51243334]
multiplicity <S^2> = 3.7506741  2S+1 = 4.000337
E1 = -73.92953352897703  Ecoul = 19.54040483526448
cycle= 2 E= -54.3891286937125  delta_E= -0.032  |g|= 0.071  |ddm|= 0.185
    CPU time for cycle= 2      0.03 sec, wall time      0.01 sec
diis-norm(errvec)=0.100471
diis-c [-0.0099698   0.04531583  0.95468417]
alpha HOMO (B2u) = -0.565708783836297  LUMO (Ag) = 0.0282292547932754
alpha irrep_nelec = [2, 0, 0, 0, 1, 1, 1]
beta  irrep_nelec = [2, 0, 0, 0, 0, 0, 0]
alpha-Ag nocc = 2  HOMO = -1.16448563380125  LUMO = 0.0282292547932754
   mo_energy = [-15.67633943  -1.16448563   0.02822925   0.20212251   0.20931573
   0.20931573   0.76147457   0.76147457   1.32099777   2.46404682
   2.46404682  16.36314317]
alpha-B1g nocc = 0
   mo_energy = [0.20931573 0.76147457 2.46404682]
alpha-B2g nocc = 0
   mo_energy = [0.20931573 0.76147457 2.46404682]
alpha-B3g nocc = 0
   mo_energy = [0.20931573 0.76147457 2.46404682]
alpha-B1u nocc = 1  HOMO = -0.565708783836299  LUMO = 0.0350548849853875
   mo_energy = [-0.56570878  0.03505488  0.19381503  1.05172375 14.60097751]
alpha-B2u nocc = 1  HOMO = -0.565708783836297  LUMO = 0.0350548849853875
   mo_energy = [-0.56570878  0.03505488  0.19381503  1.05172375 14.60097751]
alpha-B3u nocc = 1  HOMO = -0.5657087838363  LUMO = 0.0350548849853875
   mo_energy = [-0.56570878  0.03505488  0.19381503  1.05172375 14.60097751]
beta-Ag nocc = 2  HOMO = -0.752097045552901  LUMO = 0.0310068393062621
   mo_energy = [-15.59476727  -0.75209705   0.03100684   0.21499191   0.21499191
   0.22960934   0.83178911   0.83178911   1.43031228   2.63093543
   2.63093543  16.44025736]
beta-B1g nocc = 0
   mo_energy = [0.21499191 0.83178911 2.63093543]
beta-B2g nocc = 0
   mo_energy = [0.21499191 0.83178911 2.63093543]
beta-B3g nocc = 0
   mo_energy = [0.21499191 0.83178911 2.63093543]
beta-B1u nocc = 0
   mo_energy = [ 0.03171775  0.09967784  0.28797386  1.22907347 14.69836512]
beta-B2u nocc = 0
   mo_energy = [ 0.03171775  0.09967784  0.28797386  1.22907347 14.69836512]
beta-B3u nocc = 0
   mo_energy = [ 0.03171775  0.09967784  0.28797386  1.22907347 14.69836512]
multiplicity <S^2> = 3.7531572  2S+1 = 4.0015783
E1 = -73.8766272692642  Ecoul = 19.484124582859117
cycle= 3 E= -54.3925026864051  delta_E= -0.00337  |g|= 0.0243  |ddm|= 0.164
    CPU time for cycle= 3      0.03 sec, wall time      0.01 sec
diis-norm(errvec)=0.0343966
diis-c [-4.44506041e-04 -8.31074146e-02 -2.43677577e-01  1.32678499e+00]
alpha HOMO (B1u) = -0.568734803105678  LUMO (Ag) = 0.0288825101195675
alpha irrep_nelec = [2, 0, 0, 0, 1, 1, 1]
beta  irrep_nelec = [2, 0, 0, 0, 0, 0, 0]
alpha-Ag nocc = 2  HOMO = -1.16235443307381  LUMO = 0.0288825101195675
   mo_energy = [-15.67548175  -1.16235443   0.02888251   0.20517709   0.21074138
   0.21074138   0.76609959   0.76609959   1.32561202   2.46714843
   2.46714843  16.36623337]
alpha-B1g nocc = 0
   mo_energy = [0.21074138 0.76609959 2.46714843]
alpha-B2g nocc = 0
   mo_energy = [0.21074138 0.76609959 2.46714843]
alpha-B3g nocc = 0
   mo_energy = [0.21074138 0.76609959 2.46714843]
alpha-B1u nocc = 1  HOMO = -0.568734803105678  LUMO = 0.0351291208969801
   mo_energy = [-0.5687348   0.03512912  0.19471192  1.05322432 14.60324345]
alpha-B2u nocc = 1  HOMO = -0.568734803105678  LUMO = 0.0351291208969805
   mo_energy = [-0.5687348   0.03512912  0.19471192  1.05322432 14.60324345]
alpha-B3u nocc = 1  HOMO = -0.568734803105679  LUMO = 0.0351291208969804
   mo_energy = [-0.5687348   0.03512912  0.19471192  1.05322432 14.60324345]
beta-Ag nocc = 2  HOMO = -0.732716196537289  LUMO = 0.0313074906344695
   mo_energy = [-15.5898048   -0.7327162    0.03130749   0.21516063   0.21516063
   0.23295085   0.83381816   0.83381816   1.4435947    2.63948295
   2.63948295  16.4493986 ]
beta-B1g nocc = 0
   mo_energy = [0.21516063 0.83381816 2.63948295]
beta-B2g nocc = 0
   mo_energy = [0.21516063 0.83381816 2.63948295]
beta-B3g nocc = 0
   mo_energy = [0.21516063 0.83381816 2.63948295]
beta-B1u nocc = 0
   mo_energy = [ 0.03179237  0.1017461   0.29341729  1.23737034 14.70411918]
beta-B2u nocc = 0
   mo_energy = [ 0.03179237  0.1017461   0.29341729  1.23737034 14.70411918]
beta-B3u nocc = 0
   mo_energy = [ 0.03179237  0.1017461   0.29341729  1.23737034 14.70411918]
multiplicity <S^2> = 3.7561209  2S+1 = 4.0030593
E1 = -73.90452834450947  Ecoul = 19.51125933980852
cycle= 4 E= -54.393269004701  delta_E= -0.000766  |g|= 0.00522  |ddm|= 0.0812
    CPU time for cycle= 4      0.03 sec, wall time      0.01 sec
diis-norm(errvec)=0.00738483
diis-c [-1.64979644e-05  6.90558563e-03  5.71292710e-02 -3.80329812e-01
  1.31629496e+00]
alpha HOMO (B2u) = -0.570541129315003  LUMO (Ag) = 0.0288081651175428
alpha irrep_nelec = [2, 0, 0, 0, 1, 1, 1]
beta  irrep_nelec = [2, 0, 0, 0, 0, 0, 0]
alpha-Ag nocc = 2  HOMO = -1.16482624492609  LUMO = 0.0288081651175428
   mo_energy = [-15.67820283  -1.16482624   0.02880817   0.20486498   0.21066219
   0.21066219   0.76587662   0.76587662   1.32410281   2.46536724
   2.46536724  16.36363157]
alpha-B1g nocc = 0
   mo_energy = [0.21066219 0.76587662 2.46536724]
alpha-B2g nocc = 0
   mo_energy = [0.21066219 0.76587662 2.46536724]
alpha-B3g nocc = 0
   mo_energy = [0.21066219 0.76587662 2.46536724]
alpha-B1u nocc = 1  HOMO = -0.570541129315005  LUMO = 0.0350870564103819
   mo_energy = [-0.57054113  0.03508706  0.19424836  1.0516005  14.60129178]
alpha-B2u nocc = 1  HOMO = -0.570541129315003  LUMO = 0.0350870564103818
   mo_energy = [-0.57054113  0.03508706  0.19424836  1.0516005  14.60129178]
alpha-B3u nocc = 1  HOMO = -0.570541129315004  LUMO = 0.0350870564103817
   mo_energy = [-0.57054113  0.03508706  0.19424836  1.0516005  14.60129178]
beta-Ag nocc = 2  HOMO = -0.730550672659444  LUMO = 0.0313209112960553
   mo_energy = [-15.58976058  -0.73055067   0.03132091   0.21502841   0.21502841
   0.23305293   0.83284449   0.83284449   1.44403182   2.63843121
   2.63843121  16.44936303]
beta-B1g nocc = 0
   mo_energy = [0.21502841 0.83284449 2.63843121]
beta-B2g nocc = 0
   mo_energy = [0.21502841 0.83284449 2.63843121]
beta-B3g nocc = 0
   mo_energy = [0.21502841 0.83284449 2.63843121]
beta-B1u nocc = 0
   mo_energy = [ 0.03170775  0.10085206  0.29317303  1.23682605 14.70308961]
beta-B2u nocc = 0
   mo_energy = [ 0.03170775  0.10085206  0.29317303  1.23682605 14.70308961]
beta-B3u nocc = 0
   mo_energy = [ 0.03170775  0.10085206  0.29317303  1.23682605 14.70308961]
multiplicity <S^2> = 3.7571349  2S+1 = 4.0035659
E1 = -73.91255860931523  Ecoul = 19.519259735849978
cycle= 5 E= -54.3932988734652  delta_E= -2.99e-05  |g|= 0.000736  |ddm|= 0.0154
    CPU time for cycle= 5      0.03 sec, wall time      0.01 sec
diis-norm(errvec)=0.00104026
diis-c [-9.64461412e-08  6.28372609e-04 -9.86793909e-03  6.65316540e-02
 -3.43578274e-01  1.28628619e+00]
alpha HOMO (B3u) = -0.570554374583004  LUMO (Ag) = 0.0287930338267059
alpha irrep_nelec = [2, 0, 0, 0, 1, 1, 1]
beta  irrep_nelec = [2, 0, 0, 0, 0, 0, 0]
alpha-Ag nocc = 2  HOMO = -1.16511507969285  LUMO = 0.0287930338267059
   mo_energy = [-15.67804564  -1.16511508   0.02879303   0.20478894   0.2106376
   0.2106376    0.76588019   0.76588019   1.3239545    2.46534422
   2.46534422  16.36369828]
alpha-B1g nocc = 0
   mo_energy = [0.2106376  0.76588019 2.46534422]
alpha-B2g nocc = 0
   mo_energy = [0.2106376  0.76588019 2.46534422]
alpha-B3g nocc = 0
   mo_energy = [0.2106376  0.76588019 2.46534422]
alpha-B1u nocc = 1  HOMO = -0.570554374583004  LUMO = 0.0350877585686354
   mo_energy = [-0.57055437  0.03508776  0.19423913  1.05158086 14.60158682]
alpha-B2u nocc = 1  HOMO = -0.570554374583005  LUMO = 0.0350877585686351
   mo_energy = [-0.57055437  0.03508776  0.19423913  1.05158086 14.60158682]
alpha-B3u nocc = 1  HOMO = -0.570554374583004  LUMO = 0.0350877585686353
   mo_energy = [-0.57055437  0.03508776  0.19423913  1.05158086 14.60158682]
beta-Ag nocc = 2  HOMO = -0.7302521999714  LUMO = 0.0313233035318565
   mo_energy = [-15.58920182  -0.7302522    0.0313233    0.21501428   0.21501428
   0.23307495   0.83274874   0.83274874   1.44419954   2.63847541
   2.63847541  16.44983106]
beta-B1g nocc = 0
   mo_energy = [0.21501428 0.83274874 2.63847541]
beta-B2g nocc = 0
   mo_energy = [0.21501428 0.83274874 2.63847541]
beta-B3g nocc = 0
   mo_energy = [0.21501428 0.83274874 2.63847541]
beta-B1u nocc = 0
   mo_energy = [ 0.0317012   0.10081413  0.29323957  1.23695873 14.7034294 ]
beta-B2u nocc = 0
   mo_energy = [ 0.0317012   0.10081413  0.29323957  1.23695873 14.7034294 ]
beta-B3u nocc = 0
   mo_energy = [ 0.0317012   0.10081413  0.29323957  1.23695873 14.7034294 ]
multiplicity <S^2> = 3.7572713  2S+1 = 4.003634
E1 = -73.91229190335314  Ecoul = 19.518992556270685
cycle= 6 E= -54.3932993470824  delta_E= -4.74e-07  |g|= 3.69e-05  |ddm|= 0.00206
    CPU time for cycle= 6      0.03 sec, wall time      0.01 sec
diis-norm(errvec)=5.212e-05
diis-c [-4.15464896e-10 -6.45971644e-05  1.21316973e-03 -7.68752174e-03
  4.18427441e-02 -1.86342401e-01  1.15103861e+00]
alpha HOMO (B1u) = -0.570559622604892  LUMO (Ag) = 0.0287925165852869
alpha irrep_nelec = [2, 0, 0, 0, 1, 1, 1]
beta  irrep_nelec = [2, 0, 0, 0, 0, 0, 0]
alpha-Ag nocc = 2  HOMO = -1.16513401437402  LUMO = 0.0287925165852869
   mo_energy = [-15.67805215  -1.16513401   0.02879252   0.20478555   0.2106366
   0.2106366    0.76587896   0.76587896   1.32394274   2.46534108
   2.46534108  16.36368659]
alpha-B1g nocc = 0
   mo_energy = [0.2106366  0.76587896 2.46534108]
alpha-B2g nocc = 0
   mo_energy = [0.2106366  0.76587896 2.46534108]
alpha-B3g nocc = 0
   mo_energy = [0.2106366  0.76587896 2.46534108]
alpha-B1u nocc = 1  HOMO = -0.570559622604892  LUMO = 0.0350880253571445
   mo_energy = [-0.57055962  0.03508803  0.19424128  1.05158131 14.60157908]
alpha-B2u nocc = 1  HOMO = -0.570559622604894  LUMO = 0.0350880253571448
   mo_energy = [-0.57055962  0.03508803  0.19424128  1.05158131 14.60157908]
alpha-B3u nocc = 1  HOMO = -0.570559622604893  LUMO = 0.0350880253571447
   mo_energy = [-0.57055962  0.03508803  0.19424128  1.05158131 14.60157908]
beta-Ag nocc = 2  HOMO = -0.730259201108786  LUMO = 0.0313234265810771
   mo_energy = [-15.58921644  -0.7302592    0.03132343   0.21501463   0.21501463
   0.2330757    0.83274715   0.83274715   1.44419775   2.63847012
   2.63847012  16.44982032]
beta-B1g nocc = 0
   mo_energy = [0.21501463 0.83274715 2.63847012]
beta-B2g nocc = 0
   mo_energy = [0.21501463 0.83274715 2.63847012]
beta-B3g nocc = 0
   mo_energy = [0.21501463 0.83274715 2.63847012]
beta-B1u nocc = 0
   mo_energy = [ 0.03170121  0.10081282  0.29323538  1.23695459 14.70341817]
beta-B2u nocc = 0
   mo_energy = [ 0.03170121  0.10081282  0.29323538  1.23695459 14.70341817]
beta-B3u nocc = 0
   mo_energy = [ 0.03170121  0.10081282  0.29323538  1.23695459 14.70341817]
multiplicity <S^2> = 3.7572725  2S+1 = 4.0036346
E1 = -73.91226018442077  Ecoul = 19.518960836155696
cycle= 7 E= -54.3932993482651  delta_E= -1.18e-09  |g|= 2.62e-06  |ddm|= 0.000105
    CPU time for cycle= 7      0.03 sec, wall time      0.01 sec
diis-norm(errvec)=3.71202e-06
diis-c [-2.96822854e-12  6.35345628e-06 -1.89479896e-04  1.23958320e-03
 -6.47131730e-03  2.91316149e-02 -1.98436573e-01  1.17471982e+00]
alpha HOMO (B1u) = -0.570558450399704  LUMO (Ag) = 0.0287924293181722
alpha irrep_nelec = [2, 0, 0, 0, 1, 1, 1]
beta  irrep_nelec = [2, 0, 0, 0, 0, 0, 0]
alpha-Ag nocc = 2  HOMO = -1.16513372245137  LUMO = 0.0287924293181722
   mo_energy = [-15.67805194  -1.16513372   0.02879243   0.20478527   0.21063646
   0.21063646   0.76587889   0.76587889   1.32394253   2.46534128
   2.46534128  16.36368665]
alpha-B1g nocc = 0
   mo_energy = [0.21063646 0.76587889 2.46534128]
alpha-B2g nocc = 0
   mo_energy = [0.21063646 0.76587889 2.46534128]
alpha-B3g nocc = 0
   mo_energy = [0.21063646 0.76587889 2.46534128]
alpha-B1u nocc = 1  HOMO = -0.570558450399704  LUMO = 0.0350879909116744
   mo_energy = [-0.57055845  0.03508799  0.19424096  1.05158112 14.60157914]
alpha-B2u nocc = 1  HOMO = -0.570558450399706  LUMO = 0.035087990911674
   mo_energy = [-0.57055845  0.03508799  0.19424096  1.05158112 14.60157914]
alpha-B3u nocc = 1  HOMO = -0.570558450399707  LUMO = 0.0350879909116741
   mo_energy = [-0.57055845  0.03508799  0.19424096  1.05158112 14.60157914]
beta-Ag nocc = 2  HOMO = -0.730260648692595  LUMO = 0.0313233910715866
   mo_energy = [-15.58921626  -0.73026065   0.03132339   0.21501466   0.21501466
   0.23307546   0.83274707   0.83274707   1.44419765   2.63846975
   2.63846975  16.44982043]
beta-B1g nocc = 0
   mo_energy = [0.21501466 0.83274707 2.63846975]
beta-B2g nocc = 0
   mo_energy = [0.21501466 0.83274707 2.63846975]
beta-B3g nocc = 0
   mo_energy = [0.21501466 0.83274707 2.63846975]
beta-B1u nocc = 0
   mo_energy = [ 0.03170125  0.10081294  0.2932349   1.23695449 14.70341829]
beta-B2u nocc = 0
   mo_energy = [ 0.03170125  0.10081294  0.2932349   1.23695449 14.70341829]
beta-B3u nocc = 0
   mo_energy = [ 0.03170125  0.10081294  0.2932349   1.23695449 14.70341829]
multiplicity <S^2> = 3.7572721  2S+1 = 4.0036344
E1 = -73.91226272755108  Ecoul = 19.51896337927669
cycle= 8 E= -54.3932993482744  delta_E= -9.32e-12  |g|= 2.9e-07  |ddm|= 4.75e-06
    CPU time for cycle= 8      0.03 sec, wall time      0.01 sec
diis-norm(errvec)=4.09917e-07
diis-c [-5.77915179e-15  3.17691848e-07  2.07748157e-05 -1.48264491e-04
  7.84356721e-04 -3.37710288e-03  2.41799503e-02 -1.87918277e-01
  1.16645824e+00]
alpha HOMO (B1u) = -0.570558292311858  LUMO (Ag) = 0.0287924397369592
alpha irrep_nelec = [2, 0, 0, 0, 1, 1, 1]
beta  irrep_nelec = [2, 0, 0, 0, 0, 0, 0]
alpha-Ag nocc = 2  HOMO = -1.16513347211236  LUMO = 0.0287924397369592
   mo_energy = [-15.67805161  -1.16513347   0.02879244   0.20478532   0.21063648
   0.21063648   0.76587898   0.76587898   1.32394271   2.4653415
   2.4653415   16.36368696]
alpha-B1g nocc = 0
   mo_energy = [0.21063648 0.76587898 2.4653415 ]
alpha-B2g nocc = 0
   mo_energy = [0.21063648 0.76587898 2.4653415 ]
alpha-B3g nocc = 0
   mo_energy = [0.21063648 0.76587898 2.4653415 ]
alpha-B1u nocc = 1  HOMO = -0.570558292311858  LUMO = 0.0350879953319195
   mo_energy = [-0.57055829  0.035088    0.19424101  1.05158131 14.60157948]
alpha-B2u nocc = 1  HOMO = -0.570558292311861  LUMO = 0.0350879953319195
   mo_energy = [-0.57055829  0.035088    0.19424101  1.05158131 14.60157948]
alpha-B3u nocc = 1  HOMO = -0.570558292311859  LUMO = 0.0350879953319189
   mo_energy = [-0.57055829  0.035088    0.19424101  1.05158131 14.60157948]
beta-Ag nocc = 2  HOMO = -0.730260581314857  LUMO = 0.0313233939075284
   mo_energy = [-15.58921592  -0.73026058   0.03132339   0.21501468   0.21501468
   0.23307549   0.83274718   0.83274718   1.44419778   2.63846996
   2.63846996  16.44982074]
beta-B1g nocc = 0
   mo_energy = [0.21501468 0.83274718 2.63846996]
beta-B2g nocc = 0
   mo_energy = [0.21501468 0.83274718 2.63846996]
beta-B3g nocc = 0
   mo_energy = [0.21501468 0.83274718 2.63846996]
beta-B1u nocc = 0
   mo_energy = [ 0.03170126  0.10081306  0.29323499  1.23695467 14.70341859]
beta-B2u nocc = 0
   mo_energy = [ 0.03170126  0.10081306  0.29323499  1.23695467 14.70341859]
beta-B3u nocc = 0
   mo_energy = [ 0.03170126  0.10081306  0.29323499  1.23695467 14.70341859]
multiplicity <S^2> = 3.757272  2S+1 = 4.0036343
E1 = -73.91226220948644  Ecoul = 19.51896286121194
cycle= 9 E= -54.3932993482745  delta_E= -1.14e-13  |g|= 5.76e-09  |ddm|= 4.34e-07
    CPU time for cycle= 9      0.03 sec, wall time      0.01 sec
diis-norm(errvec)=8.14532e-09
Linear dependence found in DIIS error vectors.
diis-c [-1.24367001e-15  5.88950322e-01  9.92167603e-06 -7.00044528e-05
  3.73148075e-04 -1.61950571e-03  1.14106026e-02 -8.42263353e-02
  4.85171851e-01]
alpha HOMO (B1u) = -0.570558290453185  LUMO (Ag) = 0.0287924398589106
alpha irrep_nelec = [2, 0, 0, 0, 1, 1, 1]
beta  irrep_nelec = [2, 0, 0, 0, 0, 0, 0]
alpha-Ag nocc = 2  HOMO = -1.1651334696114  LUMO = 0.0287924398589106
   mo_energy = [-15.6780516   -1.16513347   0.02879244   0.20478532   0.21063648
   0.21063648   0.76587898   0.76587898   1.32394271   2.46534151
   2.46534151  16.36368697]
alpha-B1g nocc = 0
   mo_energy = [0.21063648 0.76587898 2.46534151]
alpha-B2g nocc = 0
   mo_energy = [0.21063648 0.76587898 2.46534151]
alpha-B3g nocc = 0
   mo_energy = [0.21063648 0.76587898 2.46534151]
alpha-B1u nocc = 1  HOMO = -0.570558290453185  LUMO = 0.0350879953698797
   mo_energy = [-0.57055829  0.035088    0.19424101  1.05158132 14.60157949]
alpha-B2u nocc = 1  HOMO = -0.570558290453186  LUMO = 0.0350879953698796
   mo_energy = [-0.57055829  0.035088    0.19424101  1.05158132 14.60157949]
alpha-B3u nocc = 1  HOMO = -0.570558290453186  LUMO = 0.0350879953698797
   mo_energy = [-0.57055829  0.035088    0.19424101  1.05158132 14.60157949]
beta-Ag nocc = 2  HOMO = -0.730260578001037  LUMO = 0.0313233938473047
   mo_energy = [-15.58921592  -0.73026058   0.03132339   0.21501468   0.21501468
   0.23307549   0.83274718   0.83274718   1.44419778   2.63846996
   2.63846996  16.44982075]
beta-B1g nocc = 0
   mo_energy = [0.21501468 0.83274718 2.63846996]
beta-B2g nocc = 0
   mo_energy = [0.21501468 0.83274718 2.63846996]
beta-B3g nocc = 0
   mo_energy = [0.21501468 0.83274718 2.63846996]
beta-B1u nocc = 0
   mo_energy = [ 0.03170126  0.10081306  0.29323499  1.23695467 14.7034186 ]
beta-B2u nocc = 0
   mo_energy = [ 0.03170126  0.10081306  0.29323499  1.23695467 14.7034186 ]
beta-B3u nocc = 0
   mo_energy = [ 0.03170126  0.10081306  0.29323499  1.23695467 14.7034186 ]
multiplicity <S^2> = 3.757272  2S+1 = 4.0036343
E1 = -73.91226221046352  Ecoul = 19.518962862189042
cycle= 10 E= -54.3932993482745  delta_E= 2.13e-14  |g|= 4.57e-09  |ddm|= 7.75e-09
    CPU time for cycle= 10      0.03 sec, wall time      0.01 sec
diis-norm(errvec)=6.46171e-09
Linear dependence found in DIIS error vectors.
diis-c [-1.52707059e-16  4.99550406e-01  5.02612816e-01  2.01934035e-07
 -2.28128404e-06  8.30927571e-06 -7.24602849e-06 -2.59292737e-04
 -1.90291394e-03]
alpha HOMO (B1u) = -0.570558293306654  LUMO (Ag) = 0.0287924396390466
alpha irrep_nelec = [2, 0, 0, 0, 1, 1, 1]
beta  irrep_nelec = [2, 0, 0, 0, 0, 0, 0]
alpha-Ag nocc = 2  HOMO = -1.16513347414682  LUMO = 0.0287924396390466
   mo_energy = [-15.67805161  -1.16513347   0.02879244   0.20478532   0.21063648
   0.21063648   0.76587898   0.76587898   1.32394271   2.4653415
   2.4653415   16.36368696]
alpha-B1g nocc = 0
   mo_energy = [0.21063648 0.76587898 2.4653415 ]
alpha-B2g nocc = 0
   mo_energy = [0.21063648 0.76587898 2.4653415 ]
alpha-B3g nocc = 0
   mo_energy = [0.21063648 0.76587898 2.4653415 ]
alpha-B1u nocc = 1  HOMO = -0.570558293306654  LUMO = 0.0350879952770771
   mo_energy = [-0.57055829  0.035088    0.19424101  1.05158131 14.60157948]
alpha-B2u nocc = 1  HOMO = -0.570558293306657  LUMO = 0.0350879952770771
   mo_energy = [-0.57055829  0.035088    0.19424101  1.05158131 14.60157948]
alpha-B3u nocc = 1  HOMO = -0.570558293306655  LUMO = 0.0350879952770773
   mo_energy = [-0.57055829  0.035088    0.19424101  1.05158131 14.60157948]
beta-Ag nocc = 2  HOMO = -0.730260581574728  LUMO = 0.0313233937028669
   mo_energy = [-15.58921593  -0.73026058   0.03132339   0.21501468   0.21501468
   0.23307549   0.83274718   0.83274718   1.44419778   2.63846996
   2.63846996  16.44982074]
beta-B1g nocc = 0
   mo_energy = [0.21501468 0.83274718 2.63846996]
beta-B2g nocc = 0
   mo_energy = [0.21501468 0.83274718 2.63846996]
beta-B3g nocc = 0
   mo_energy = [0.21501468 0.83274718 2.63846996]
beta-B1u nocc = 0
   mo_energy = [ 0.03170126  0.10081306  0.29323498  1.23695467 14.70341859]
beta-B2u nocc = 0
   mo_energy = [ 0.03170126  0.10081306  0.29323498  1.23695467 14.70341859]
beta-B3u nocc = 0
   mo_energy = [ 0.03170126  0.10081306  0.29323498  1.23695467 14.70341859]
multiplicity <S^2> = 3.757272  2S+1 = 4.0036343
E1 = -73.91226222523818  Ecoul = 19.518962876963705
cycle= 11 E= -54.3932993482745  delta_E= 7.11e-15  |g|= 4.75e-10  |ddm|= 4.86e-09
    CPU time for cycle= 11      0.03 sec, wall time      0.01 sec
diis-norm(errvec)=6.71413e-10
Linear dependence found in DIIS error vectors.
diis-c [-5.84600094e-17  3.31339795e-01  3.34657215e-01  3.31335956e-01
 -4.95085796e-07  1.14400148e-06  3.08045487e-05 -6.68868093e-04
  3.30444943e-03]
alpha HOMO (B1u) = -0.570558293257526  LUMO (Ag) = 0.0287924396428558
alpha irrep_nelec = [2, 0, 0, 0, 1, 1, 1]
beta  irrep_nelec = [2, 0, 0, 0, 0, 0, 0]
alpha-Ag nocc = 2  HOMO = -1.16513347402126  LUMO = 0.0287924396428558
   mo_energy = [-15.67805161  -1.16513347   0.02879244   0.20478532   0.21063648
   0.21063648   0.76587898   0.76587898   1.32394271   2.4653415
   2.4653415   16.36368696]
alpha-B1g nocc = 0
   mo_energy = [0.21063648 0.76587898 2.4653415 ]
alpha-B2g nocc = 0
   mo_energy = [0.21063648 0.76587898 2.4653415 ]
alpha-B3g nocc = 0
   mo_energy = [0.21063648 0.76587898 2.4653415 ]
alpha-B1u nocc = 1  HOMO = -0.570558293257526  LUMO = 0.0350879952781743
   mo_energy = [-0.57055829  0.035088    0.19424101  1.05158131 14.60157948]
alpha-B2u nocc = 1  HOMO = -0.570558293257527  LUMO = 0.0350879952781745
   mo_energy = [-0.57055829  0.035088    0.19424101  1.05158131 14.60157948]
alpha-B3u nocc = 1  HOMO = -0.570558293257527  LUMO = 0.0350879952781746
   mo_energy = [-0.57055829  0.035088    0.19424101  1.05158131 14.60157948]
beta-Ag nocc = 2  HOMO = -0.73026058145932  LUMO = 0.0313233937062337
   mo_energy = [-15.58921593  -0.73026058   0.03132339   0.21501468   0.21501468
   0.23307549   0.83274718   0.83274718   1.44419778   2.63846996
   2.63846996  16.44982074]
beta-B1g nocc = 0
   mo_energy = [0.21501468 0.83274718 2.63846996]
beta-B2g nocc = 0
   mo_energy = [0.21501468 0.83274718 2.63846996]
beta-B3g nocc = 0
   mo_energy = [0.21501468 0.83274718 2.63846996]
beta-B1u nocc = 0
   mo_energy = [ 0.03170126  0.10081306  0.29323498  1.23695467 14.70341859]
beta-B2u nocc = 0
   mo_energy = [ 0.03170126  0.10081306  0.29323498  1.23695467 14.70341859]
beta-B3u nocc = 0
   mo_energy = [ 0.03170126  0.10081306  0.29323498  1.23695467 14.70341859]
multiplicity <S^2> = 3.757272  2S+1 = 4.0036343
E1 = -73.91226222517604  Ecoul = 19.51896287690156
cycle= 12 E= -54.3932993482745  delta_E=    0  |g|= 3.61e-10  |ddm|= 4.83e-10
    CPU time for cycle= 12      0.03 sec, wall time      0.01 sec
diis-norm(errvec)=5.10791e-10
Linear dependence found in DIIS error vectors.
diis-c [-2.29348909e-17  2.49407752e-01  2.50783348e-01  2.47704497e-01
  2.47722738e-01 -1.72688528e-06  5.38500145e-05 -7.52720042e-04
  5.08226327e-03]
alpha HOMO (B2u) = -0.570558293225385  LUMO (Ag) = 0.0287924396347514
alpha irrep_nelec = [2, 0, 0, 0, 1, 1, 1]
beta  irrep_nelec = [2, 0, 0, 0, 0, 0, 0]
alpha-Ag nocc = 2  HOMO = -1.16513347402702  LUMO = 0.0287924396347514
   mo_energy = [-15.67805161  -1.16513347   0.02879244   0.20478532   0.21063648
   0.21063648   0.76587898   0.76587898   1.32394271   2.4653415
   2.4653415   16.36368696]
alpha-B1g nocc = 0
   mo_energy = [0.21063648 0.76587898 2.4653415 ]
alpha-B2g nocc = 0
   mo_energy = [0.21063648 0.76587898 2.4653415 ]
alpha-B3g nocc = 0
   mo_energy = [0.21063648 0.76587898 2.4653415 ]
alpha-B1u nocc = 1  HOMO = -0.570558293225385  LUMO = 0.0350879952779578
   mo_energy = [-0.57055829  0.035088    0.19424101  1.05158131 14.60157948]
alpha-B2u nocc = 1  HOMO = -0.570558293225385  LUMO = 0.0350879952779579
   mo_energy = [-0.57055829  0.035088    0.19424101  1.05158131 14.60157948]
alpha-B3u nocc = 1  HOMO = -0.570558293225385  LUMO = 0.035087995277958
   mo_energy = [-0.57055829  0.035088    0.19424101  1.05158131 14.60157948]
beta-Ag nocc = 2  HOMO = -0.7302605817487  LUMO = 0.0313233937021709
   mo_energy = [-15.58921593  -0.73026058   0.03132339   0.21501468   0.21501468
   0.23307549   0.83274718   0.83274718   1.44419778   2.63846996
   2.63846996  16.44982074]
beta-B1g nocc = 0
   mo_energy = [0.21501468 0.83274718 2.63846996]
beta-B2g nocc = 0
   mo_energy = [0.21501468 0.83274718 2.63846996]
beta-B3g nocc = 0
   mo_energy = [0.21501468 0.83274718 2.63846996]
beta-B1u nocc = 0
   mo_energy = [ 0.03170126  0.10081306  0.29323498  1.23695467 14.70341859]
beta-B2u nocc = 0
   mo_energy = [ 0.03170126  0.10081306  0.29323498  1.23695467 14.70341859]
beta-B3u nocc = 0
   mo_energy = [ 0.03170126  0.10081306  0.29323498  1.23695467 14.70341859]
multiplicity <S^2> = 3.757272  2S+1 = 4.0036343
E1 = -73.91226222470544  Ecoul = 19.51896287643096
cycle= 13 E= -54.3932993482745  delta_E= -7.11e-15  |g|= 3.7e-10  |ddm|= 1.24e-09
    CPU time for cycle= 13      0.03 sec, wall time      0.01 sec
diis-norm(errvec)=5.23768e-10
Linear dependence found in DIIS error vectors.
diis-c [-8.96659495e-16  2.00001316e-01  2.00960944e-01  1.98333982e-01
  1.98352530e-01  1.98413400e-01  2.16698165e-05 -4.83294286e-04
  4.39945334e-03]
alpha HOMO (B1u) = -0.570558293192493  LUMO (Ag) = 0.0287924396355733
alpha irrep_nelec = [2, 0, 0, 0, 1, 1, 1]
beta  irrep_nelec = [2, 0, 0, 0, 0, 0, 0]
alpha-Ag nocc = 2  HOMO = -1.16513347395017  LUMO = 0.0287924396355733
   mo_energy = [-15.67805161  -1.16513347   0.02879244   0.20478532   0.21063648
   0.21063648   0.76587898   0.76587898   1.32394271   2.4653415
   2.4653415   16.36368696]
alpha-B1g nocc = 0
   mo_energy = [0.21063648 0.76587898 2.4653415 ]
alpha-B2g nocc = 0
   mo_energy = [0.21063648 0.76587898 2.4653415 ]
alpha-B3g nocc = 0
   mo_energy = [0.21063648 0.76587898 2.4653415 ]
alpha-B1u nocc = 1  HOMO = -0.570558293192493  LUMO = 0.0350879952781464
   mo_energy = [-0.57055829  0.035088    0.19424101  1.05158131 14.60157948]
alpha-B2u nocc = 1  HOMO = -0.570558293192494  LUMO = 0.0350879952781464
   mo_energy = [-0.57055829  0.035088    0.19424101  1.05158131 14.60157948]
alpha-B3u nocc = 1  HOMO = -0.570558293192494  LUMO = 0.0350879952781465
   mo_energy = [-0.57055829  0.035088    0.19424101  1.05158131 14.60157948]
beta-Ag nocc = 2  HOMO = -0.730260581856915  LUMO = 0.0313233937009306
   mo_energy = [-15.58921593  -0.73026058   0.03132339   0.21501468   0.21501468
   0.23307549   0.83274718   0.83274718   1.44419778   2.63846996
   2.63846996  16.44982074]
beta-B1g nocc = 0
   mo_energy = [0.21501468 0.83274718 2.63846996]
beta-B2g nocc = 0
   mo_energy = [0.21501468 0.83274718 2.63846996]
beta-B3g nocc = 0
   mo_energy = [0.21501468 0.83274718 2.63846996]
beta-B1u nocc = 0
   mo_energy = [ 0.03170126  0.10081306  0.29323498  1.23695467 14.70341859]
beta-B2u nocc = 0
   mo_energy = [ 0.03170126  0.10081306  0.29323498  1.23695467 14.70341859]
beta-B3u nocc = 0
   mo_energy = [ 0.03170126  0.10081306  0.29323498  1.23695467 14.70341859]
multiplicity <S^2> = 3.757272  2S+1 = 4.0036343
E1 = -73.91226222456459  Ecoul = 19.518962876290164
cycle= 14 E= -54.3932993482744  delta_E= 5.68e-14  |g|= 4.28e-10  |ddm|= 4.93e-10
    CPU time for cycle= 14      0.03 sec, wall time      0.01 sec
diis-norm(errvec)=6.05714e-10
Linear dependence found in DIIS error vectors.
diis-c [ 1.63620909e-17  1.66827889e-01  1.67699505e-01  1.65743416e-01
  1.65757638e-01  1.65805052e-01  1.65849841e-01 -1.84797528e-04
  2.50145630e-03]
alpha HOMO (B1u) = -0.570558293311988  LUMO (Ag) = 0.0287924396288484
alpha irrep_nelec = [2, 0, 0, 0, 1, 1, 1]
beta  irrep_nelec = [2, 0, 0, 0, 0, 0, 0]
alpha-Ag nocc = 2  HOMO = -1.16513347413438  LUMO = 0.0287924396288484
   mo_energy = [-15.67805161  -1.16513347   0.02879244   0.20478532   0.21063648
   0.21063648   0.76587898   0.76587898   1.32394271   2.4653415
   2.4653415   16.36368696]
alpha-B1g nocc = 0
   mo_energy = [0.21063648 0.76587898 2.4653415 ]
alpha-B2g nocc = 0
   mo_energy = [0.21063648 0.76587898 2.4653415 ]
alpha-B3g nocc = 0
   mo_energy = [0.21063648 0.76587898 2.4653415 ]
alpha-B1u nocc = 1  HOMO = -0.570558293311988  LUMO = 0.0350879952775146
   mo_energy = [-0.57055829  0.035088    0.19424101  1.05158131 14.60157948]
alpha-B2u nocc = 1  HOMO = -0.570558293311989  LUMO = 0.0350879952775146
   mo_energy = [-0.57055829  0.035088    0.19424101  1.05158131 14.60157948]
alpha-B3u nocc = 1  HOMO = -0.570558293311989  LUMO = 0.0350879952775147
   mo_energy = [-0.57055829  0.035088    0.19424101  1.05158131 14.60157948]
beta-Ag nocc = 2  HOMO = -0.730260581969179  LUMO = 0.0313233936999836
   mo_energy = [-15.58921593  -0.73026058   0.03132339   0.21501468   0.21501468
   0.23307549   0.83274718   0.83274718   1.44419778   2.63846996
   2.63846996  16.44982074]
beta-B1g nocc = 0
   mo_energy = [0.21501468 0.83274718 2.63846996]
beta-B2g nocc = 0
   mo_energy = [0.21501468 0.83274718 2.63846996]
beta-B3g nocc = 0
   mo_energy = [0.21501468 0.83274718 2.63846996]
beta-B1u nocc = 0
   mo_energy = [ 0.03170126  0.10081306  0.29323498  1.23695467 14.70341859]
beta-B2u nocc = 0
   mo_energy = [ 0.03170126  0.10081306  0.29323498  1.23695467 14.70341859]
beta-B3u nocc = 0
   mo_energy = [ 0.03170126  0.10081306  0.29323498  1.23695467 14.70341859]
multiplicity <S^2> = 3.757272  2S+1 = 4.0036343
E1 = -73.91226222466291  Ecoul = 19.518962876388418
cycle= 15 E= -54.3932993482745  delta_E= -7.11e-14  |g|= 4.19e-10  |ddm|= 4.23e-10
    CPU time for cycle= 15      0.03 sec, wall time      0.01 sec
diis-norm(errvec)=5.92394e-10
Linear dependence found in DIIS error vectors.
diis-c [1.95923125e-16 1.42988889e-01 1.43552156e-01 1.42331552e-01
 1.42340008e-01 1.42381444e-01 1.42419168e-01 1.42387622e-01
 1.59916069e-03]
alpha HOMO (B3u) = -0.570558293358338  LUMO (Ag) = 0.0287924396300594
alpha irrep_nelec = [2, 0, 0, 0, 1, 1, 1]
beta  irrep_nelec = [2, 0, 0, 0, 0, 0, 0]
alpha-Ag nocc = 2  HOMO = -1.16513347414909  LUMO = 0.0287924396300594
   mo_energy = [-15.67805161  -1.16513347   0.02879244   0.20478532   0.21063648
   0.21063648   0.76587898   0.76587898   1.32394271   2.4653415
   2.4653415   16.36368696]
alpha-B1g nocc = 0
   mo_energy = [0.21063648 0.76587898 2.4653415 ]
alpha-B2g nocc = 0
   mo_energy = [0.21063648 0.76587898 2.4653415 ]
alpha-B3g nocc = 0
   mo_energy = [0.21063648 0.76587898 2.4653415 ]
alpha-B1u nocc = 1  HOMO = -0.570558293358338  LUMO = 0.035087995277467
   mo_energy = [-0.57055829  0.035088    0.19424101  1.05158131 14.60157948]
alpha-B2u nocc = 1  HOMO = -0.570558293358339  LUMO = 0.0350879952774671
   mo_energy = [-0.57055829  0.035088    0.19424101  1.05158131 14.60157948]
alpha-B3u nocc = 1  HOMO = -0.570558293358338  LUMO = 0.0350879952774671
   mo_energy = [-0.57055829  0.035088    0.19424101  1.05158131 14.60157948]
beta-Ag nocc = 2  HOMO = -0.730260581916817  LUMO = 0.0313233937007511
   mo_energy = [-15.58921593  -0.73026058   0.03132339   0.21501468   0.21501468
   0.23307549   0.83274718   0.83274718   1.44419778   2.63846996
   2.63846996  16.44982074]
beta-B1g nocc = 0
   mo_energy = [0.21501468 0.83274718 2.63846996]
beta-B2g nocc = 0
   mo_energy = [0.21501468 0.83274718 2.63846996]
beta-B3g nocc = 0
   mo_energy = [0.21501468 0.83274718 2.63846996]
beta-B1u nocc = 0
   mo_energy = [ 0.03170126  0.10081306  0.29323498  1.23695467 14.70341859]
beta-B2u nocc = 0
   mo_energy = [ 0.03170126  0.10081306  0.29323498  1.23695467 14.70341859]
beta-B3u nocc = 0
   mo_energy = [ 0.03170126  0.10081306  0.29323498  1.23695467 14.70341859]
multiplicity <S^2> = 3.757272  2S+1 = 4.0036343
E1 = -73.9122622247445  Ecoul = 19.51896287647
cycle= 16 E= -54.3932993482745  delta_E=    0  |g|= 3.77e-10  |ddm|= 1.88e-10
    CPU time for cycle= 16      0.03 sec, wall time      0.01 sec
diis-norm(errvec)=5.33753e-10
Linear dependence found in DIIS error vectors.
diis-c [-2.89052492e-16  1.25000000e-01  1.25000000e-01  1.25000000e-01
  1.25000000e-01  1.25000000e-01  1.25000000e-01  1.25000000e-01
  1.25000000e-01]
alpha HOMO (B2u) = -0.570558293347923  LUMO (Ag) = 0.0287924396296971
alpha irrep_nelec = [2, 0, 0, 0, 1, 1, 1]
beta  irrep_nelec = [2, 0, 0, 0, 0, 0, 0]
alpha-Ag nocc = 2  HOMO = -1.16513347412268  LUMO = 0.0287924396296971
   mo_energy = [-15.67805161  -1.16513347   0.02879244   0.20478532   0.21063648
   0.21063648   0.76587898   0.76587898   1.32394271   2.4653415
   2.4653415   16.36368696]
alpha-B1g nocc = 0
   mo_energy = [0.21063648 0.76587898 2.4653415 ]
alpha-B2g nocc = 0
   mo_energy = [0.21063648 0.76587898 2.4653415 ]
alpha-B3g nocc = 0
   mo_energy = [0.21063648 0.76587898 2.4653415 ]
alpha-B1u nocc = 1  HOMO = -0.570558293347924  LUMO = 0.0350879952775621
   mo_energy = [-0.57055829  0.035088    0.19424101  1.05158131 14.60157948]
alpha-B2u nocc = 1  HOMO = -0.570558293347923  LUMO = 0.0350879952775621
   mo_energy = [-0.57055829  0.035088    0.19424101  1.05158131 14.60157948]
alpha-B3u nocc = 1  HOMO = -0.570558293347924  LUMO = 0.0350879952775621
   mo_energy = [-0.57055829  0.035088    0.19424101  1.05158131 14.60157948]
beta-Ag nocc = 2  HOMO = -0.730260582029533  LUMO = 0.0313233936996009
   mo_energy = [-15.58921593  -0.73026058   0.03132339   0.21501468   0.21501468
   0.23307549   0.83274718   0.83274718   1.44419778   2.63846995
   2.63846995  16.44982074]
beta-B1g nocc = 0
   mo_energy = [0.21501468 0.83274718 2.63846995]
beta-B2g nocc = 0
   mo_energy = [0.21501468 0.83274718 2.63846995]
beta-B3g nocc = 0
   mo_energy = [0.21501468 0.83274718 2.63846995]
beta-B1u nocc = 0
   mo_energy = [ 0.03170126  0.10081306  0.29323498  1.23695467 14.70341859]
beta-B2u nocc = 0
   mo_energy = [ 0.03170126  0.10081306  0.29323498  1.23695467 14.70341859]
beta-B3u nocc = 0
   mo_energy = [ 0.03170126  0.10081306  0.29323498  1.23695467 14.70341859]
multiplicity <S^2> = 3.757272  2S+1 = 4.0036343
E1 = -73.91226222471197  Ecoul = 19.518962876437477
cycle= 17 E= -54.3932993482745  delta_E= 7.11e-15  |g|= 4.1e-10  |ddm|= 2.88e-10
    CPU time for cycle= 17      0.03 sec, wall time      0.01 sec
diis-norm(errvec)=5.79618e-10
Linear dependence found in DIIS error vectors.
diis-c [-2.89052492e-16  1.25000000e-01  1.25000000e-01  1.25000000e-01
  1.25000000e-01  1.25000000e-01  1.25000000e-01  1.25000000e-01
  1.25000000e-01]
alpha HOMO (B2u) = -0.570558293229188  LUMO (Ag) = 0.028792439633614
alpha irrep_nelec = [2, 0, 0, 0, 1, 1, 1]
beta  irrep_nelec = [2, 0, 0, 0, 0, 0, 0]
alpha-Ag nocc = 2  HOMO = -1.16513347394054  LUMO = 0.028792439633614
   mo_energy = [-15.67805161  -1.16513347   0.02879244   0.20478532   0.21063648
   0.21063648   0.76587898   0.76587898   1.32394271   2.4653415
   2.4653415   16.36368696]
alpha-B1g nocc = 0
   mo_energy = [0.21063648 0.76587898 2.4653415 ]
alpha-B2g nocc = 0
   mo_energy = [0.21063648 0.76587898 2.4653415 ]
alpha-B3g nocc = 0
   mo_energy = [0.21063648 0.76587898 2.4653415 ]
alpha-B1u nocc = 1  HOMO = -0.57055829322919  LUMO = 0.0350879952779468
   mo_energy = [-0.57055829  0.035088    0.19424101  1.05158131 14.60157948]
alpha-B2u nocc = 1  HOMO = -0.570558293229188  LUMO = 0.0350879952779468
   mo_energy = [-0.57055829  0.035088    0.19424101  1.05158131 14.60157948]
alpha-B3u nocc = 1  HOMO = -0.57055829322919  LUMO = 0.0350879952779468
   mo_energy = [-0.57055829  0.035088    0.19424101  1.05158131 14.60157948]
beta-Ag nocc = 2  HOMO = -0.730260581753345  LUMO = 0.0313233937021847
   mo_energy = [-15.58921593  -0.73026058   0.03132339   0.21501468   0.21501468
   0.23307549   0.83274718   0.83274718   1.44419778   2.63846996
   2.63846996  16.44982074]
beta-B1g nocc = 0
   mo_energy = [0.21501468 0.83274718 2.63846996]
beta-B2g nocc = 0
   mo_energy = [0.21501468 0.83274718 2.63846996]
beta-B3g nocc = 0
   mo_energy = [0.21501468 0.83274718 2.63846996]
beta-B1u nocc = 0
   mo_energy = [ 0.03170126  0.10081306  0.29323498  1.23695467 14.70341859]
beta-B2u nocc = 0
   mo_energy = [ 0.03170126  0.10081306  0.29323498  1.23695467 14.70341859]
beta-B3u nocc = 0
   mo_energy = [ 0.03170126  0.10081306  0.29323498  1.23695467 14.70341859]
multiplicity <S^2> = 3.757272  2S+1 = 4.0036343
E1 = -73.91226222465987  Ecoul = 19.518962876385395
cycle= 18 E= -54.3932993482745  delta_E= 1.42e-14  |g|= 2.04e-10  |ddm|= 7.38e-10
    CPU time for cycle= 18      0.03 sec, wall time      0.01 sec
diis-norm(errvec)=2.88223e-10
Linear dependence found in DIIS error vectors.
diis-c [-2.89052492e-16  1.25000000e-01  1.25000000e-01  1.25000000e-01
  1.25000000e-01  1.25000000e-01  1.25000000e-01  1.25000000e-01
  1.25000000e-01]
alpha HOMO (B3u) = -0.570558293107513  LUMO (Ag) = 0.0287924396357269
alpha irrep_nelec = [2, 0, 0, 0, 1, 1, 1]
beta  irrep_nelec = [2, 0, 0, 0, 0, 0, 0]
alpha-Ag nocc = 2  HOMO = -1.16513347378955  LUMO = 0.0287924396357269
   mo_energy = [-15.67805161  -1.16513347   0.02879244   0.20478532   0.21063648
   0.21063648   0.76587898   0.76587898   1.32394271   2.4653415
   2.4653415   16.36368696]
alpha-B1g nocc = 0
   mo_energy = [0.21063648 0.76587898 2.4653415 ]
alpha-B2g nocc = 0
   mo_energy = [0.21063648 0.76587898 2.4653415 ]
alpha-B3g nocc = 0
   mo_energy = [0.21063648 0.76587898 2.4653415 ]
alpha-B1u nocc = 1  HOMO = -0.570558293107514  LUMO = 0.0350879952782416
   mo_energy = [-0.57055829  0.035088    0.19424101  1.05158131 14.60157948]
alpha-B2u nocc = 1  HOMO = -0.570558293107513  LUMO = 0.0350879952782416
   mo_energy = [-0.57055829  0.035088    0.19424101  1.05158131 14.60157948]
alpha-B3u nocc = 1  HOMO = -0.570558293107513  LUMO = 0.0350879952782416
   mo_energy = [-0.57055829  0.035088    0.19424101  1.05158131 14.60157948]
beta-Ag nocc = 2  HOMO = -0.730260581535231  LUMO = 0.0313233937040179
   mo_energy = [-15.58921592  -0.73026058   0.03132339   0.21501468   0.21501468
   0.23307549   0.83274718   0.83274718   1.44419778   2.63846996
   2.63846996  16.44982074]
beta-B1g nocc = 0
   mo_energy = [0.21501468 0.83274718 2.63846996]
beta-B2g nocc = 0
   mo_energy = [0.21501468 0.83274718 2.63846996]
beta-B3g nocc = 0
   mo_energy = [0.21501468 0.83274718 2.63846996]
beta-B1u nocc = 0
   mo_energy = [ 0.03170126  0.10081306  0.29323498  1.23695467 14.70341859]
beta-B2u nocc = 0
   mo_energy = [ 0.03170126  0.10081306  0.29323498  1.23695467 14.70341859]
beta-B3u nocc = 0
   mo_energy = [ 0.03170126  0.10081306  0.29323498  1.23695467 14.70341859]
multiplicity <S^2> = 3.757272  2S+1 = 4.0036343
E1 = -73.91226222451397  Ecoul = 19.518962876239492
cycle= 19 E= -54.3932993482745  delta_E=    0  |g|= 8.6e-11  |ddm|= 4.56e-10
    CPU time for cycle= 19      0.03 sec, wall time      0.01 sec
diis-norm(errvec)=1.21652e-10
Linear dependence found in DIIS error vectors.
diis-c [-2.89052492e-16  1.25000000e-01  1.25000000e-01  1.25000000e-01
  1.25000000e-01  1.25000000e-01  1.25000000e-01  1.25000000e-01
  1.25000000e-01]
alpha HOMO (B1u) = -0.570558293114305  LUMO (Ag) = 0.0287924396353112
alpha irrep_nelec = [2, 0, 0, 0, 1, 1, 1]
beta  irrep_nelec = [2, 0, 0, 0, 0, 0, 0]
alpha-Ag nocc = 2  HOMO = -1.16513347379331  LUMO = 0.0287924396353112
   mo_energy = [-15.67805161  -1.16513347   0.02879244   0.20478532   0.21063648
   0.21063648   0.76587898   0.76587898   1.32394271   2.4653415
   2.4653415   16.36368696]
alpha-B1g nocc = 0
   mo_energy = [0.21063648 0.76587898 2.4653415 ]
alpha-B2g nocc = 0
   mo_energy = [0.21063648 0.76587898 2.4653415 ]
alpha-B3g nocc = 0
   mo_energy = [0.21063648 0.76587898 2.4653415 ]
alpha-B1u nocc = 1  HOMO = -0.570558293114305  LUMO = 0.0350879952782088
   mo_energy = [-0.57055829  0.035088    0.19424101  1.05158131 14.60157948]
alpha-B2u nocc = 1  HOMO = -0.570558293114305  LUMO = 0.0350879952782089
   mo_energy = [-0.57055829  0.035088    0.19424101  1.05158131 14.60157948]
alpha-B3u nocc = 1  HOMO = -0.570558293114306  LUMO = 0.0350879952782089
   mo_energy = [-0.57055829  0.035088    0.19424101  1.05158131 14.60157948]
beta-Ag nocc = 2  HOMO = -0.730260581551618  LUMO = 0.031323393703857
   mo_energy = [-15.58921592  -0.73026058   0.03132339   0.21501468   0.21501468
   0.23307549   0.83274718   0.83274718   1.44419778   2.63846996
   2.63846996  16.44982074]
beta-B1g nocc = 0
   mo_energy = [0.21501468 0.83274718 2.63846996]
beta-B2g nocc = 0
   mo_energy = [0.21501468 0.83274718 2.63846996]
beta-B3g nocc = 0
   mo_energy = [0.21501468 0.83274718 2.63846996]
beta-B1u nocc = 0
   mo_energy = [ 0.03170126  0.10081306  0.29323498  1.23695467 14.70341859]
beta-B2u nocc = 0
   mo_energy = [ 0.03170126  0.10081306  0.29323498  1.23695467 14.70341859]
beta-B3u nocc = 0
   mo_energy = [ 0.03170126  0.10081306  0.29323498  1.23695467 14.70341859]
multiplicity <S^2> = 3.757272  2S+1 = 4.0036343
E1 = -73.91226222451078  Ecoul = 19.51896287623631
cycle= 20 E= -54.3932993482745  delta_E=    0  |g|= 8.44e-11  |ddm|= 2.53e-11
    CPU time for cycle= 20      0.03 sec, wall time      0.01 sec
diis-norm(errvec)=1.19319e-10
Linear dependence found in DIIS error vectors.
diis-c [-2.89052492e-16  1.25000000e-01  1.25000000e-01  1.25000000e-01
  1.25000000e-01  1.25000000e-01  1.25000000e-01  1.25000000e-01
  1.25000000e-01]
alpha HOMO (B3u) = -0.570558293119001  LUMO (Ag) = 0.0287924396348631
alpha irrep_nelec = [2, 0, 0, 0, 1, 1, 1]
beta  irrep_nelec = [2, 0, 0, 0, 0, 0, 0]
alpha-Ag nocc = 2  HOMO = -1.16513347379664  LUMO = 0.0287924396348631
   mo_energy = [-15.67805161  -1.16513347   0.02879244   0.20478532   0.21063648
   0.21063648   0.76587898   0.76587898   1.32394271   2.4653415
   2.4653415   16.36368696]
alpha-B1g nocc = 0
   mo_energy = [0.21063648 0.76587898 2.4653415 ]
alpha-B2g nocc = 0
   mo_energy = [0.21063648 0.76587898 2.4653415 ]
alpha-B3g nocc = 0
   mo_energy = [0.21063648 0.76587898 2.4653415 ]
alpha-B1u nocc = 1  HOMO = -0.570558293119003  LUMO = 0.0350879952781816
   mo_energy = [-0.57055829  0.035088    0.19424101  1.05158131 14.60157948]
alpha-B2u nocc = 1  HOMO = -0.570558293119002  LUMO = 0.0350879952781817
   mo_energy = [-0.57055829  0.035088    0.19424101  1.05158131 14.60157948]
alpha-B3u nocc = 1  HOMO = -0.570558293119001  LUMO = 0.0350879952781816
   mo_energy = [-0.57055829  0.035088    0.19424101  1.05158131 14.60157948]
beta-Ag nocc = 2  HOMO = -0.73026058157106  LUMO = 0.0313233937036531
   mo_energy = [-15.58921592  -0.73026058   0.03132339   0.21501468   0.21501468
   0.23307549   0.83274718   0.83274718   1.44419778   2.63846996
   2.63846996  16.44982074]
beta-B1g nocc = 0
   mo_energy = [0.21501468 0.83274718 2.63846996]
beta-B2g nocc = 0
   mo_energy = [0.21501468 0.83274718 2.63846996]
beta-B3g nocc = 0
   mo_energy = [0.21501468 0.83274718 2.63846996]
beta-B1u nocc = 0
   mo_energy = [ 0.03170126  0.10081306  0.29323498  1.23695467 14.70341859]
beta-B2u nocc = 0
   mo_energy = [ 0.03170126  0.10081306  0.29323498  1.23695467 14.70341859]
beta-B3u nocc = 0
   mo_energy = [ 0.03170126  0.10081306  0.29323498  1.23695467 14.70341859]
multiplicity <S^2> = 3.757272  2S+1 = 4.0036343
E1 = -73.91226222450022  Ecoul = 19.518962876225764
cycle= 21 E= -54.3932993482745  delta_E= 1.42e-14  |g|= 9.04e-11  |ddm|= 4.63e-11
    CPU time for cycle= 21      0.03 sec, wall time      0.01 sec
diis-norm(errvec)=1.27879e-10
Linear dependence found in DIIS error vectors.
diis-c [-2.89052492e-16  1.25000000e-01  1.25000000e-01  1.25000000e-01
  1.25000000e-01  1.25000000e-01  1.25000000e-01  1.25000000e-01
  1.25000000e-01]
alpha HOMO (B2u) = -0.570558293122651  LUMO (Ag) = 0.0287924396347663
alpha irrep_nelec = [2, 0, 0, 0, 1, 1, 1]
beta  irrep_nelec = [2, 0, 0, 0, 0, 0, 0]
alpha-Ag nocc = 2  HOMO = -1.16513347379718  LUMO = 0.0287924396347663
   mo_energy = [-15.67805161  -1.16513347   0.02879244   0.20478532   0.21063648
   0.21063648   0.76587898   0.76587898   1.32394271   2.4653415
   2.4653415   16.36368696]
alpha-B1g nocc = 0
   mo_energy = [0.21063648 0.76587898 2.4653415 ]
alpha-B2g nocc = 0
   mo_energy = [0.21063648 0.76587898 2.4653415 ]
alpha-B3g nocc = 0
   mo_energy = [0.21063648 0.76587898 2.4653415 ]
alpha-B1u nocc = 1  HOMO = -0.570558293122653  LUMO = 0.0350879952781669
   mo_energy = [-0.57055829  0.035088    0.19424101  1.05158131 14.60157948]
alpha-B2u nocc = 1  HOMO = -0.570558293122651  LUMO = 0.0350879952781668
   mo_energy = [-0.57055829  0.035088    0.19424101  1.05158131 14.60157948]
alpha-B3u nocc = 1  HOMO = -0.570558293122652  LUMO = 0.0350879952781668
   mo_energy = [-0.57055829  0.035088    0.19424101  1.05158131 14.60157948]
beta-Ag nocc = 2  HOMO = -0.730260581571693  LUMO = 0.0313233937036591
   mo_energy = [-15.58921592  -0.73026058   0.03132339   0.21501468   0.21501468
   0.23307549   0.83274718   0.83274718   1.44419778   2.63846996
   2.63846996  16.44982074]
beta-B1g nocc = 0
   mo_energy = [0.21501468 0.83274718 2.63846996]
beta-B2g nocc = 0
   mo_energy = [0.21501468 0.83274718 2.63846996]
beta-B3g nocc = 0
   mo_energy = [0.21501468 0.83274718 2.63846996]
beta-B1u nocc = 0
   mo_energy = [ 0.03170126  0.10081306  0.29323498  1.23695467 14.70341859]
beta-B2u nocc = 0
   mo_energy = [ 0.03170126  0.10081306  0.29323498  1.23695467 14.70341859]
beta-B3u nocc = 0
   mo_energy = [ 0.03170126  0.10081306  0.29323498  1.23695467 14.70341859]
multiplicity <S^2> = 3.757272  2S+1 = 4.0036343
E1 = -73.91226222450663  Ecoul = 19.51896287623216
cycle= 22 E= -54.3932993482745  delta_E= -1.42e-14  |g|= 8.35e-11  |ddm|= 2e-11
    CPU time for cycle= 22      0.03 sec, wall time      0.01 sec
diis-norm(errvec)=1.18087e-10
Linear dependence found in DIIS error vectors.
diis-c [-2.89052492e-16  1.25000000e-01  1.25000000e-01  1.25000000e-01
  1.25000000e-01  1.25000000e-01  1.25000000e-01  1.25000000e-01
  1.25000000e-01]
alpha HOMO (B2u) = -0.570558293126731  LUMO (Ag) = 0.0287924396346817
alpha irrep_nelec = [2, 0, 0, 0, 1, 1, 1]
beta  irrep_nelec = [2, 0, 0, 0, 0, 0, 0]
alpha-Ag nocc = 2  HOMO = -1.16513347379944  LUMO = 0.0287924396346817
   mo_energy = [-15.67805161  -1.16513347   0.02879244   0.20478532   0.21063648
   0.21063648   0.76587898   0.76587898   1.32394271   2.4653415
   2.4653415   16.36368696]
alpha-B1g nocc = 0
   mo_energy = [0.21063648 0.76587898 2.4653415 ]
alpha-B2g nocc = 0
   mo_energy = [0.21063648 0.76587898 2.4653415 ]
alpha-B3g nocc = 0
   mo_energy = [0.21063648 0.76587898 2.4653415 ]
alpha-B1u nocc = 1  HOMO = -0.570558293126733  LUMO = 0.0350879952781468
   mo_energy = [-0.57055829  0.035088    0.19424101  1.05158131 14.60157948]
alpha-B2u nocc = 1  HOMO = -0.570558293126731  LUMO = 0.0350879952781468
   mo_energy = [-0.57055829  0.035088    0.19424101  1.05158131 14.60157948]
alpha-B3u nocc = 1  HOMO = -0.570558293126732  LUMO = 0.0350879952781467
   mo_energy = [-0.57055829  0.035088    0.19424101  1.05158131 14.60157948]
beta-Ag nocc = 2  HOMO = -0.730260581564126  LUMO = 0.0313233937037533
   mo_energy = [-15.58921592  -0.73026058   0.03132339   0.21501468   0.21501468
   0.23307549   0.83274718   0.83274718   1.44419778   2.63846996
   2.63846996  16.44982074]
beta-B1g nocc = 0
   mo_energy = [0.21501468 0.83274718 2.63846996]
beta-B2g nocc = 0
   mo_energy = [0.21501468 0.83274718 2.63846996]
beta-B3g nocc = 0
   mo_energy = [0.21501468 0.83274718 2.63846996]
beta-B1u nocc = 0
   mo_energy = [ 0.03170126  0.10081306  0.29323498  1.23695467 14.70341859]
beta-B2u nocc = 0
   mo_energy = [ 0.03170126  0.10081306  0.29323498  1.23695467 14.70341859]
beta-B3u nocc = 0
   mo_energy = [ 0.03170126  0.10081306  0.29323498  1.23695467 14.70341859]
multiplicity <S^2> = 3.757272  2S+1 = 4.0036343
E1 = -73.91226222451927  Ecoul = 19.51896287624478
cycle= 23 E= -54.3932993482745  delta_E= -7.11e-15  |g|= 6.94e-11  |ddm|= 5.24e-11
    CPU time for cycle= 23      0.03 sec, wall time      0.01 sec
diis-norm(errvec)=9.81929e-11
Linear dependence found in DIIS error vectors.
diis-c [-2.89052492e-16  1.25000000e-01  1.25000000e-01  1.25000000e-01
  1.25000000e-01  1.25000000e-01  1.25000000e-01  1.25000000e-01
  1.25000000e-01]
alpha HOMO (B1u) = -0.570558293131352  LUMO (Ag) = 0.0287924396347675
alpha irrep_nelec = [2, 0, 0, 0, 1, 1, 1]
beta  irrep_nelec = [2, 0, 0, 0, 0, 0, 0]
alpha-Ag nocc = 2  HOMO = -1.16513347380026  LUMO = 0.0287924396347675
   mo_energy = [-15.67805161  -1.16513347   0.02879244   0.20478532   0.21063648
   0.21063648   0.76587898   0.76587898   1.32394271   2.4653415
   2.4653415   16.36368696]
alpha-B1g nocc = 0
   mo_energy = [0.21063648 0.76587898 2.4653415 ]
alpha-B2g nocc = 0
   mo_energy = [0.21063648 0.76587898 2.4653415 ]
alpha-B3g nocc = 0
   mo_energy = [0.21063648 0.76587898 2.4653415 ]
alpha-B1u nocc = 1  HOMO = -0.570558293131352  LUMO = 0.0350879952781368
   mo_energy = [-0.57055829  0.035088    0.19424101  1.05158131 14.60157948]
alpha-B2u nocc = 1  HOMO = -0.570558293131353  LUMO = 0.035087995278137
   mo_energy = [-0.57055829  0.035088    0.19424101  1.05158131 14.60157948]
alpha-B3u nocc = 1  HOMO = -0.570558293131354  LUMO = 0.0350879952781369
   mo_energy = [-0.57055829  0.035088    0.19424101  1.05158131 14.60157948]
beta-Ag nocc = 2  HOMO = -0.730260581557589  LUMO = 0.0313233937038472
   mo_energy = [-15.58921592  -0.73026058   0.03132339   0.21501468   0.21501468
   0.23307549   0.83274718   0.83274718   1.44419778   2.63846996
   2.63846996  16.44982074]
beta-B1g nocc = 0
   mo_energy = [0.21501468 0.83274718 2.63846996]
beta-B2g nocc = 0
   mo_energy = [0.21501468 0.83274718 2.63846996]
beta-B3g nocc = 0
   mo_energy = [0.21501468 0.83274718 2.63846996]
beta-B1u nocc = 0
   mo_energy = [ 0.03170126  0.10081306  0.29323498  1.23695467 14.70341859]
beta-B2u nocc = 0
   mo_energy = [ 0.03170126  0.10081306  0.29323498  1.23695467 14.70341859]
beta-B3u nocc = 0
   mo_energy = [ 0.03170126  0.10081306  0.29323498  1.23695467 14.70341859]
multiplicity <S^2> = 3.757272  2S+1 = 4.0036343
E1 = -73.9122622245357  Ecoul = 19.51896287626122
cycle= 24 E= -54.3932993482745  delta_E= 7.11e-15  |g|= 5.71e-11  |ddm|= 4.52e-11
    CPU time for cycle= 24      0.03 sec, wall time      0.01 sec
diis-norm(errvec)=8.07701e-11
Linear dependence found in DIIS error vectors.
diis-c [-2.89052492e-16  1.25000000e-01  1.25000000e-01  1.25000000e-01
  1.25000000e-01  1.25000000e-01  1.25000000e-01  1.25000000e-01
  1.25000000e-01]
alpha HOMO (B1u) = -0.570558293135231  LUMO (Ag) = 0.0287924396347835
alpha irrep_nelec = [2, 0, 0, 0, 1, 1, 1]
beta  irrep_nelec = [2, 0, 0, 0, 0, 0, 0]
alpha-Ag nocc = 2  HOMO = -1.16513347380133  LUMO = 0.0287924396347835
   mo_energy = [-15.67805161  -1.16513347   0.02879244   0.20478532   0.21063648
   0.21063648   0.76587898   0.76587898   1.32394271   2.4653415
   2.4653415   16.36368696]
alpha-B1g nocc = 0
   mo_energy = [0.21063648 0.76587898 2.4653415 ]
alpha-B2g nocc = 0
   mo_energy = [0.21063648 0.76587898 2.4653415 ]
alpha-B3g nocc = 0
   mo_energy = [0.21063648 0.76587898 2.4653415 ]
alpha-B1u nocc = 1  HOMO = -0.570558293135231  LUMO = 0.0350879952781269
   mo_energy = [-0.57055829  0.035088    0.19424101  1.05158131 14.60157948]
alpha-B2u nocc = 1  HOMO = -0.570558293135232  LUMO = 0.0350879952781269
   mo_energy = [-0.57055829  0.035088    0.19424101  1.05158131 14.60157948]
alpha-B3u nocc = 1  HOMO = -0.570558293135233  LUMO = 0.0350879952781269
   mo_energy = [-0.57055829  0.035088    0.19424101  1.05158131 14.60157948]
beta-Ag nocc = 2  HOMO = -0.730260581555256  LUMO = 0.0313233937038923
   mo_energy = [-15.58921592  -0.73026058   0.03132339   0.21501468   0.21501468
   0.23307549   0.83274718   0.83274718   1.44419778   2.63846996
   2.63846996  16.44982074]
beta-B1g nocc = 0
   mo_energy = [0.21501468 0.83274718 2.63846996]
beta-B2g nocc = 0
   mo_energy = [0.21501468 0.83274718 2.63846996]
beta-B3g nocc = 0
   mo_energy = [0.21501468 0.83274718 2.63846996]
beta-B1u nocc = 0
   mo_energy = [ 0.03170126  0.10081306  0.29323498  1.23695467 14.70341859]
beta-B2u nocc = 0
   mo_energy = [ 0.03170126  0.10081306  0.29323498  1.23695467 14.70341859]
beta-B3u nocc = 0
   mo_energy = [ 0.03170126  0.10081306  0.29323498  1.23695467 14.70341859]
multiplicity <S^2> = 3.757272  2S+1 = 4.0036343
E1 = -73.91226222454888  Ecoul = 19.518962876274397
cycle= 25 E= -54.3932993482745  delta_E= -7.11e-15  |g|= 4.84e-11  |ddm|= 3.18e-11
    CPU time for cycle= 25      0.03 sec, wall time      0.01 sec
diis-norm(errvec)=6.85021e-11
Linear dependence found in DIIS error vectors.
diis-c [-2.89052492e-16  1.25000000e-01  1.25000000e-01  1.25000000e-01
  1.25000000e-01  1.25000000e-01  1.25000000e-01  1.25000000e-01
  1.25000000e-01]
alpha HOMO (B2u) = -0.570558293140525  LUMO (Ag) = 0.0287924396348344
alpha irrep_nelec = [2, 0, 0, 0, 1, 1, 1]
beta  irrep_nelec = [2, 0, 0, 0, 0, 0, 0]
alpha-Ag nocc = 2  HOMO = -1.16513347380427  LUMO = 0.0287924396348344
   mo_energy = [-15.67805161  -1.16513347   0.02879244   0.20478532   0.21063648
[...]
   mo_energy = [-0.57055829  0.035088    0.19424101  1.05158131 14.60157948]
alpha-B3u nocc = 1  HOMO = -0.570558293144477  LUMO = 0.0350879952780868
   mo_energy = [-0.57055829  0.035088    0.19424101  1.05158131 14.60157948]
beta-Ag nocc = 2  HOMO = -0.730260581518025  LUMO = 0.0313233937043281
   mo_energy = [-15.58921592  -0.73026058   0.03132339   0.21501468   0.21501468
   0.23307549   0.83274718   0.83274718   1.44419778   2.63846996
   2.63846996  16.44982074]
beta-B1g nocc = 0
   mo_energy = [0.21501468 0.83274718 2.63846996]
beta-B2g nocc = 0
   mo_energy = [0.21501468 0.83274718 2.63846996]
beta-B3g nocc = 0
   mo_energy = [0.21501468 0.83274718 2.63846996]
beta-B1u nocc = 0
   mo_energy = [ 0.03170126  0.10081306  0.29323498  1.23695467 14.70341859]
beta-B2u nocc = 0
   mo_energy = [ 0.03170126  0.10081306  0.29323498  1.23695467 14.70341859]
beta-B3u nocc = 0
   mo_energy = [ 0.03170126  0.10081306  0.29323498  1.23695467 14.70341859]
multiplicity <S^2> = 3.757272  2S+1 = 4.0036343
E1 = -73.91226222459593  Ecoul = 19.518962876321464
cycle= 69 E= -54.3932993482745  delta_E=    0  |g|= 4.15e-14  |ddm|= 2.51e-14
    CPU time for cycle= 69      0.03 sec, wall time      0.01 sec
diis-norm(errvec)=5.89372e-14
Linear dependence found in DIIS error vectors.
diis-c [-2.89052492e-16  1.25000000e-01  1.25000000e-01  1.25000000e-01
  1.25000000e-01  1.25000000e-01  1.25000000e-01  1.25000000e-01
  1.25000000e-01]
alpha HOMO (B3u) = -0.570558293144476  LUMO (Ag) = 0.028792439634946
alpha irrep_nelec = [2, 0, 0, 0, 1, 1, 1]
beta  irrep_nelec = [2, 0, 0, 0, 0, 0, 0]
alpha-Ag nocc = 2  HOMO = -1.1651334738035  LUMO = 0.028792439634946
   mo_energy = [-15.67805161  -1.16513347   0.02879244   0.20478532   0.21063648
   0.21063648   0.76587898   0.76587898   1.32394271   2.4653415
   2.4653415   16.36368696]
alpha-B1g nocc = 0
   mo_energy = [0.21063648 0.76587898 2.4653415 ]
alpha-B2g nocc = 0
   mo_energy = [0.21063648 0.76587898 2.4653415 ]
alpha-B3g nocc = 0
   mo_energy = [0.21063648 0.76587898 2.4653415 ]
alpha-B1u nocc = 1  HOMO = -0.570558293144478  LUMO = 0.0350879952780867
   mo_energy = [-0.57055829  0.035088    0.19424101  1.05158131 14.60157948]
alpha-B2u nocc = 1  HOMO = -0.570558293144476  LUMO = 0.0350879952780866
   mo_energy = [-0.57055829  0.035088    0.19424101  1.05158131 14.60157948]
alpha-B3u nocc = 1  HOMO = -0.570558293144476  LUMO = 0.0350879952780867
   mo_energy = [-0.57055829  0.035088    0.19424101  1.05158131 14.60157948]
beta-Ag nocc = 2  HOMO = -0.730260581518021  LUMO = 0.0313233937043282
   mo_energy = [-15.58921592  -0.73026058   0.03132339   0.21501468   0.21501468
   0.23307549   0.83274718   0.83274718   1.44419778   2.63846996
   2.63846996  16.44982074]
beta-B1g nocc = 0
   mo_energy = [0.21501468 0.83274718 2.63846996]
beta-B2g nocc = 0
   mo_energy = [0.21501468 0.83274718 2.63846996]
beta-B3g nocc = 0
   mo_energy = [0.21501468 0.83274718 2.63846996]
beta-B1u nocc = 0
   mo_energy = [ 0.03170126  0.10081306  0.29323498  1.23695467 14.70341859]
beta-B2u nocc = 0
   mo_energy = [ 0.03170126  0.10081306  0.29323498  1.23695467 14.70341859]
beta-B3u nocc = 0
   mo_energy = [ 0.03170126  0.10081306  0.29323498  1.23695467 14.70341859]
multiplicity <S^2> = 3.757272  2S+1 = 4.0036343
E1 = -73.91226222459595  Ecoul = 19.51896287632148
cycle= 70 E= -54.3932993482745  delta_E=    0  |g|= 4.34e-14  |ddm|= 1.2e-14
    CPU time for cycle= 70      0.03 sec, wall time      0.01 sec
diis-norm(errvec)=4.99882e-14
Linear dependence found in DIIS error vectors.
diis-c [-2.89052492e-16  1.25000000e-01  1.25000000e-01  1.25000000e-01
  1.25000000e-01  1.25000000e-01  1.25000000e-01  1.25000000e-01
  1.25000000e-01]
alpha HOMO (B1u) = -0.570558293144475  LUMO (Ag) = 0.028792439634946
alpha irrep_nelec = [2, 0, 0, 0, 1, 1, 1]
beta  irrep_nelec = [2, 0, 0, 0, 0, 0, 0]
alpha-Ag nocc = 2  HOMO = -1.1651334738035  LUMO = 0.028792439634946
   mo_energy = [-15.67805161  -1.16513347   0.02879244   0.20478532   0.21063648
   0.21063648   0.76587898   0.76587898   1.32394271   2.4653415
   2.4653415   16.36368696]
alpha-B1g nocc = 0
   mo_energy = [0.21063648 0.76587898 2.4653415 ]
alpha-B2g nocc = 0
   mo_energy = [0.21063648 0.76587898 2.4653415 ]
alpha-B3g nocc = 0
   mo_energy = [0.21063648 0.76587898 2.4653415 ]
alpha-B1u nocc = 1  HOMO = -0.570558293144475  LUMO = 0.0350879952780867
   mo_energy = [-0.57055829  0.035088    0.19424101  1.05158131 14.60157948]
alpha-B2u nocc = 1  HOMO = -0.570558293144477  LUMO = 0.0350879952780867
   mo_energy = [-0.57055829  0.035088    0.19424101  1.05158131 14.60157948]
alpha-B3u nocc = 1  HOMO = -0.570558293144477  LUMO = 0.0350879952780867
   mo_energy = [-0.57055829  0.035088    0.19424101  1.05158131 14.60157948]
beta-Ag nocc = 2  HOMO = -0.730260581518015  LUMO = 0.031323393704328
   mo_energy = [-15.58921592  -0.73026058   0.03132339   0.21501468   0.21501468
   0.23307549   0.83274718   0.83274718   1.44419778   2.63846996
   2.63846996  16.44982074]
beta-B1g nocc = 0
   mo_energy = [0.21501468 0.83274718 2.63846996]
beta-B2g nocc = 0
   mo_energy = [0.21501468 0.83274718 2.63846996]
beta-B3g nocc = 0
   mo_energy = [0.21501468 0.83274718 2.63846996]
beta-B1u nocc = 0
   mo_energy = [ 0.03170126  0.10081306  0.29323498  1.23695467 14.70341859]
beta-B2u nocc = 0
   mo_energy = [ 0.03170126  0.10081306  0.29323498  1.23695467 14.70341859]
beta-B3u nocc = 0
   mo_energy = [ 0.03170126  0.10081306  0.29323498  1.23695467 14.70341859]
multiplicity <S^2> = 3.757272  2S+1 = 4.0036343
E1 = -73.91226222459595  Ecoul = 19.518962876321474
cycle= 71 E= -54.3932993482745  delta_E= -7.11e-15  |g|= 4.53e-14  |ddm|= 2.53e-14
    CPU time for cycle= 71      0.03 sec, wall time      0.01 sec
diis-norm(errvec)=4.25468e-14
Linear dependence found in DIIS error vectors.
diis-c [-2.89052492e-16  1.25000000e-01  1.25000000e-01  1.25000000e-01
  1.25000000e-01  1.25000000e-01  1.25000000e-01  1.25000000e-01
  1.25000000e-01]
alpha HOMO (B2u) = -0.570558293144475  LUMO (Ag) = 0.0287924396349459
alpha irrep_nelec = [2, 0, 0, 0, 1, 1, 1]
beta  irrep_nelec = [2, 0, 0, 0, 0, 0, 0]
alpha-Ag nocc = 2  HOMO = -1.1651334738035  LUMO = 0.0287924396349459
   mo_energy = [-15.67805161  -1.16513347   0.02879244   0.20478532   0.21063648
   0.21063648   0.76587898   0.76587898   1.32394271   2.4653415
   2.4653415   16.36368696]
alpha-B1g nocc = 0
   mo_energy = [0.21063648 0.76587898 2.4653415 ]
alpha-B2g nocc = 0
   mo_energy = [0.21063648 0.76587898 2.4653415 ]
alpha-B3g nocc = 0
   mo_energy = [0.21063648 0.76587898 2.4653415 ]
alpha-B1u nocc = 1  HOMO = -0.570558293144479  LUMO = 0.0350879952780867
   mo_energy = [-0.57055829  0.035088    0.19424101  1.05158131 14.60157948]
alpha-B2u nocc = 1  HOMO = -0.570558293144475  LUMO = 0.0350879952780866
   mo_energy = [-0.57055829  0.035088    0.19424101  1.05158131 14.60157948]
alpha-B3u nocc = 1  HOMO = -0.570558293144478  LUMO = 0.0350879952780866
   mo_energy = [-0.57055829  0.035088    0.19424101  1.05158131 14.60157948]
beta-Ag nocc = 2  HOMO = -0.730260581518009  LUMO = 0.0313233937043281
   mo_energy = [-15.58921592  -0.73026058   0.03132339   0.21501468   0.21501468
   0.23307549   0.83274718   0.83274718   1.44419778   2.63846996
   2.63846996  16.44982074]
beta-B1g nocc = 0
   mo_energy = [0.21501468 0.83274718 2.63846996]
beta-B2g nocc = 0
   mo_energy = [0.21501468 0.83274718 2.63846996]
beta-B3g nocc = 0
   mo_energy = [0.21501468 0.83274718 2.63846996]
beta-B1u nocc = 0
   mo_energy = [ 0.03170126  0.10081306  0.29323498  1.23695467 14.70341859]
beta-B2u nocc = 0
   mo_energy = [ 0.03170126  0.10081306  0.29323498  1.23695467 14.70341859]
beta-B3u nocc = 0
   mo_energy = [ 0.03170126  0.10081306  0.29323498  1.23695467 14.70341859]
multiplicity <S^2> = 3.757272  2S+1 = 4.0036343
E1 = -73.91226222459596  Ecoul = 19.51896287632148
cycle= 72 E= -54.3932993482745  delta_E= -7.11e-15  |g|= 2.65e-14  |ddm|= 1.09e-14
    CPU time for cycle= 72      0.03 sec, wall time      0.01 sec
diis-norm(errvec)=3.93868e-14
Linear dependence found in DIIS error vectors.
diis-c [-2.89052492e-16  1.25000000e-01  1.25000000e-01  1.25000000e-01
  1.25000000e-01  1.25000000e-01  1.25000000e-01  1.25000000e-01
  1.25000000e-01]
alpha HOMO (B2u) = -0.570558293144476  LUMO (Ag) = 0.0287924396349458
alpha irrep_nelec = [2, 0, 0, 0, 1, 1, 1]
beta  irrep_nelec = [2, 0, 0, 0, 0, 0, 0]
alpha-Ag nocc = 2  HOMO = -1.1651334738035  LUMO = 0.0287924396349458
   mo_energy = [-15.67805161  -1.16513347   0.02879244   0.20478532   0.21063648
   0.21063648   0.76587898   0.76587898   1.32394271   2.4653415
   2.4653415   16.36368696]
alpha-B1g nocc = 0
   mo_energy = [0.21063648 0.76587898 2.4653415 ]
alpha-B2g nocc = 0
   mo_energy = [0.21063648 0.76587898 2.4653415 ]
alpha-B3g nocc = 0
   mo_energy = [0.21063648 0.76587898 2.4653415 ]
alpha-B1u nocc = 1  HOMO = -0.570558293144478  LUMO = 0.0350879952780867
   mo_energy = [-0.57055829  0.035088    0.19424101  1.05158131 14.60157948]
alpha-B2u nocc = 1  HOMO = -0.570558293144476  LUMO = 0.0350879952780865
   mo_energy = [-0.57055829  0.035088    0.19424101  1.05158131 14.60157948]
alpha-B3u nocc = 1  HOMO = -0.570558293144477  LUMO = 0.0350879952780865
   mo_energy = [-0.57055829  0.035088    0.19424101  1.05158131 14.60157948]
beta-Ag nocc = 2  HOMO = -0.730260581518006  LUMO = 0.0313233937043281
   mo_energy = [-15.58921592  -0.73026058   0.03132339   0.21501468   0.21501468
   0.23307549   0.83274718   0.83274718   1.44419778   2.63846996
   2.63846996  16.44982074]
beta-B1g nocc = 0
   mo_energy = [0.21501468 0.83274718 2.63846996]
beta-B2g nocc = 0
   mo_energy = [0.21501468 0.83274718 2.63846996]
beta-B3g nocc = 0
   mo_energy = [0.21501468 0.83274718 2.63846996]
beta-B1u nocc = 0
   mo_energy = [ 0.03170126  0.10081306  0.29323498  1.23695467 14.70341859]
beta-B2u nocc = 0
   mo_energy = [ 0.03170126  0.10081306  0.29323498  1.23695467 14.70341859]
beta-B3u nocc = 0
   mo_energy = [ 0.03170126  0.10081306  0.29323498  1.23695467 14.70341859]
multiplicity <S^2> = 3.757272  2S+1 = 4.0036343
E1 = -73.91226222459599  Ecoul = 19.518962876321503
cycle= 73 E= -54.3932993482745  delta_E= -7.11e-15  |g|= 2.8e-14  |ddm|= 1.67e-14
    CPU time for cycle= 73      0.03 sec, wall time      0.01 sec
diis-norm(errvec)=4.74715e-14
Linear dependence found in DIIS error vectors.
diis-c [-2.89052492e-16  1.25000000e-01  1.25000000e-01  1.25000000e-01
  1.25000000e-01  1.25000000e-01  1.25000000e-01  1.25000000e-01
  1.25000000e-01]
alpha HOMO (B2u) = -0.570558293144476  LUMO (Ag) = 0.0287924396349459
alpha irrep_nelec = [2, 0, 0, 0, 1, 1, 1]
beta  irrep_nelec = [2, 0, 0, 0, 0, 0, 0]
alpha-Ag nocc = 2  HOMO = -1.16513347380351  LUMO = 0.0287924396349459
   mo_energy = [-15.67805161  -1.16513347   0.02879244   0.20478532   0.21063648
   0.21063648   0.76587898   0.76587898   1.32394271   2.4653415
   2.4653415   16.36368696]
alpha-B1g nocc = 0
   mo_energy = [0.21063648 0.76587898 2.4653415 ]
alpha-B2g nocc = 0
   mo_energy = [0.21063648 0.76587898 2.4653415 ]
alpha-B3g nocc = 0
   mo_energy = [0.21063648 0.76587898 2.4653415 ]
alpha-B1u nocc = 1  HOMO = -0.570558293144479  LUMO = 0.0350879952780867
   mo_energy = [-0.57055829  0.035088    0.19424101  1.05158131 14.60157948]
alpha-B2u nocc = 1  HOMO = -0.570558293144476  LUMO = 0.0350879952780866
   mo_energy = [-0.57055829  0.035088    0.19424101  1.05158131 14.60157948]
alpha-B3u nocc = 1  HOMO = -0.570558293144478  LUMO = 0.0350879952780866
   mo_energy = [-0.57055829  0.035088    0.19424101  1.05158131 14.60157948]
beta-Ag nocc = 2  HOMO = -0.730260581518006  LUMO = 0.0313233937043282
   mo_energy = [-15.58921592  -0.73026058   0.03132339   0.21501468   0.21501468
   0.23307549   0.83274718   0.83274718   1.44419778   2.63846996
   2.63846996  16.44982074]
beta-B1g nocc = 0
   mo_energy = [0.21501468 0.83274718 2.63846996]
beta-B2g nocc = 0
   mo_energy = [0.21501468 0.83274718 2.63846996]
beta-B3g nocc = 0
   mo_energy = [0.21501468 0.83274718 2.63846996]
beta-B1u nocc = 0
   mo_energy = [ 0.03170126  0.10081306  0.29323498  1.23695467 14.70341859]
beta-B2u nocc = 0
   mo_energy = [ 0.03170126  0.10081306  0.29323498  1.23695467 14.70341859]
beta-B3u nocc = 0
   mo_energy = [ 0.03170126  0.10081306  0.29323498  1.23695467 14.70341859]
multiplicity <S^2> = 3.757272  2S+1 = 4.0036343
E1 = -73.91226222459596  Ecoul = 19.51896287632149
cycle= 74 E= -54.3932993482745  delta_E= 1.42e-14  |g|= 1.94e-14  |ddm|= 1.75e-14
    CPU time for cycle= 74      0.03 sec, wall time      0.01 sec
diis-norm(errvec)=2.19772e-14
Linear dependence found in DIIS error vectors.
diis-c [-2.89052492e-16  1.25000000e-01  1.25000000e-01  1.25000000e-01
  1.25000000e-01  1.25000000e-01  1.25000000e-01  1.25000000e-01
  1.25000000e-01]
alpha HOMO (B2u) = -0.570558293144477  LUMO (Ag) = 0.0287924396349459
alpha irrep_nelec = [2, 0, 0, 0, 1, 1, 1]
beta  irrep_nelec = [2, 0, 0, 0, 0, 0, 0]
alpha-Ag nocc = 2  HOMO = -1.16513347380351  LUMO = 0.0287924396349459
   mo_energy = [-15.67805161  -1.16513347   0.02879244   0.20478532   0.21063648
   0.21063648   0.76587898   0.76587898   1.32394271   2.4653415
   2.4653415   16.36368696]
alpha-B1g nocc = 0
   mo_energy = [0.21063648 0.76587898 2.4653415 ]
alpha-B2g nocc = 0
   mo_energy = [0.21063648 0.76587898 2.4653415 ]
alpha-B3g nocc = 0
   mo_energy = [0.21063648 0.76587898 2.4653415 ]
alpha-B1u nocc = 1  HOMO = -0.570558293144479  LUMO = 0.0350879952780868
   mo_energy = [-0.57055829  0.035088    0.19424101  1.05158131 14.60157948]
alpha-B2u nocc = 1  HOMO = -0.570558293144477  LUMO = 0.0350879952780866
   mo_energy = [-0.57055829  0.035088    0.19424101  1.05158131 14.60157948]
alpha-B3u nocc = 1  HOMO = -0.570558293144478  LUMO = 0.0350879952780865
   mo_energy = [-0.57055829  0.035088    0.19424101  1.05158131 14.60157948]
beta-Ag nocc = 2  HOMO = -0.730260581518002  LUMO = 0.0313233937043281
   mo_energy = [-15.58921592  -0.73026058   0.03132339   0.21501468   0.21501468
   0.23307549   0.83274718   0.83274718   1.44419778   2.63846996
   2.63846996  16.44982074]
beta-B1g nocc = 0
   mo_energy = [0.21501468 0.83274718 2.63846996]
beta-B2g nocc = 0
   mo_energy = [0.21501468 0.83274718 2.63846996]
beta-B3g nocc = 0
   mo_energy = [0.21501468 0.83274718 2.63846996]
beta-B1u nocc = 0
   mo_energy = [ 0.03170126  0.10081306  0.29323498  1.23695467 14.70341859]
beta-B2u nocc = 0
   mo_energy = [ 0.03170126  0.10081306  0.29323498  1.23695467 14.70341859]
beta-B3u nocc = 0
   mo_energy = [ 0.03170126  0.10081306  0.29323498  1.23695467 14.70341859]
multiplicity <S^2> = 3.757272  2S+1 = 4.0036343
E1 = -73.91226222459595  Ecoul = 19.518962876321485
cycle= 75 E= -54.3932993482745  delta_E= 7.11e-15  |g|= 1.83e-14  |ddm|= 8.99e-15
    CPU time for cycle= 75      0.03 sec, wall time      0.01 sec
diis-norm(errvec)=3.33143e-14
Linear dependence found in DIIS error vectors.
diis-c [-2.89052492e-16  1.25000000e-01  1.25000000e-01  1.25000000e-01
  1.25000000e-01  1.25000000e-01  1.25000000e-01  1.25000000e-01
  1.25000000e-01]
alpha HOMO (B2u) = -0.570558293144477  LUMO (Ag) = 0.0287924396349459
alpha irrep_nelec = [2, 0, 0, 0, 1, 1, 1]
beta  irrep_nelec = [2, 0, 0, 0, 0, 0, 0]
alpha-Ag nocc = 2  HOMO = -1.1651334738035  LUMO = 0.0287924396349459
   mo_energy = [-15.67805161  -1.16513347   0.02879244   0.20478532   0.21063648
   0.21063648   0.76587898   0.76587898   1.32394271   2.4653415
   2.4653415   16.36368696]
alpha-B1g nocc = 0
   mo_energy = [0.21063648 0.76587898 2.4653415 ]
alpha-B2g nocc = 0
   mo_energy = [0.21063648 0.76587898 2.4653415 ]
alpha-B3g nocc = 0
   mo_energy = [0.21063648 0.76587898 2.4653415 ]
alpha-B1u nocc = 1  HOMO = -0.570558293144479  LUMO = 0.0350879952780867
   mo_energy = [-0.57055829  0.035088    0.19424101  1.05158131 14.60157948]
alpha-B2u nocc = 1  HOMO = -0.570558293144477  LUMO = 0.0350879952780867
   mo_energy = [-0.57055829  0.035088    0.19424101  1.05158131 14.60157948]
alpha-B3u nocc = 1  HOMO = -0.570558293144478  LUMO = 0.0350879952780866
   mo_energy = [-0.57055829  0.035088    0.19424101  1.05158131 14.60157948]
beta-Ag nocc = 2  HOMO = -0.730260581518002  LUMO = 0.0313233937043279
   mo_energy = [-15.58921592  -0.73026058   0.03132339   0.21501468   0.21501468
   0.23307549   0.83274718   0.83274718   1.44419778   2.63846996
   2.63846996  16.44982074]
beta-B1g nocc = 0
   mo_energy = [0.21501468 0.83274718 2.63846996]
beta-B2g nocc = 0
   mo_energy = [0.21501468 0.83274718 2.63846996]
beta-B3g nocc = 0
   mo_energy = [0.21501468 0.83274718 2.63846996]
beta-B1u nocc = 0
   mo_energy = [ 0.03170126  0.10081306  0.29323498  1.23695467 14.70341859]
beta-B2u nocc = 0
   mo_energy = [ 0.03170126  0.10081306  0.29323498  1.23695467 14.70341859]
beta-B3u nocc = 0
   mo_energy = [ 0.03170126  0.10081306  0.29323498  1.23695467 14.70341859]
multiplicity <S^2> = 3.757272  2S+1 = 4.0036343
E1 = -73.91226222459598  Ecoul = 19.518962876321506
cycle= 76 E= -54.3932993482745  delta_E=    0  |g|= 1.6e-14  |ddm|= 5.33e-15
    CPU time for cycle= 76      0.03 sec, wall time      0.01 sec
alpha HOMO (B3u) = -0.570558293144476  LUMO (Ag) = 0.0287924396349451
alpha irrep_nelec = [2, 0, 0, 0, 1, 1, 1]
beta  irrep_nelec = [2, 0, 0, 0, 0, 0, 0]
alpha-Ag nocc = 2  HOMO = -1.16513347380351  LUMO = 0.0287924396349451
   mo_energy = [-15.67805161  -1.16513347   0.02879244   0.20478532   0.21063648
   0.21063648   0.76587898   0.76587898   1.32394271   2.4653415
   2.4653415   16.36368696]
alpha-B1g nocc = 0
   mo_energy = [0.21063648 0.76587898 2.4653415 ]
alpha-B2g nocc = 0
   mo_energy = [0.21063648 0.76587898 2.4653415 ]
alpha-B3g nocc = 0
   mo_energy = [0.21063648 0.76587898 2.4653415 ]
alpha-B1u nocc = 1  HOMO = -0.570558293144476  LUMO = 0.0350879952780871
   mo_energy = [-0.57055829  0.035088    0.19424101  1.05158131 14.60157948]
alpha-B2u nocc = 1  HOMO = -0.570558293144477  LUMO = 0.0350879952780868
   mo_energy = [-0.57055829  0.035088    0.19424101  1.05158131 14.60157948]
alpha-B3u nocc = 1  HOMO = -0.570558293144476  LUMO = 0.0350879952780869
   mo_energy = [-0.57055829  0.035088    0.19424101  1.05158131 14.60157948]
beta-Ag nocc = 2  HOMO = -0.730260581517993  LUMO = 0.0313233937043268
   mo_energy = [-15.58921592  -0.73026058   0.03132339   0.21501468   0.21501468
   0.23307549   0.83274718   0.83274718   1.44419778   2.63846996
   2.63846996  16.44982074]
beta-B1g nocc = 0
   mo_energy = [0.21501468 0.83274718 2.63846996]
beta-B2g nocc = 0
   mo_energy = [0.21501468 0.83274718 2.63846996]
beta-B3g nocc = 0
   mo_energy = [0.21501468 0.83274718 2.63846996]
beta-B1u nocc = 0
   mo_energy = [ 0.03170126  0.10081306  0.29323498  1.23695467 14.70341859]
beta-B2u nocc = 0
   mo_energy = [ 0.03170126  0.10081306  0.29323498  1.23695467 14.70341859]
beta-B3u nocc = 0
   mo_energy = [ 0.03170126  0.10081306  0.29323498  1.23695467 14.70341859]
multiplicity <S^2> = 3.757272  2S+1 = 4.0036343
E1 = -73.91226222459599  Ecoul = 19.51896287632149
Extra cycle  E= -54.3932993482745  delta_E= -3.55e-14  |g|= 2.19e-14  |ddm|= 5.33e-15
    CPU time for scf_cycle      2.78 sec, wall time      0.83 sec
    CPU time for SCF      2.83 sec, wall time      0.87 sec
converged SCF energy = -54.3932993482745  <S^2> = 3.757272  2S+1 = 4.0036343
irreps of each MO ['Ag' 'Ag' 'B1u' 'B2u' 'B3u' 'Ag' 'B1u' 'B2u' 'B3u' 'B1u' 'B2u' 'B3u' 'Ag'
 'Ag' 'Ag' 'B1g' 'B2g' 'B3g' 'Ag' 'Ag' 'B1g' 'B2g' 'B3g' 'B1u' 'B2u' 'B3u'
 'Ag' 'Ag' 'Ag' 'B1g' 'B2g' 'B3g' 'B1u' 'B2u' 'B3u' 'Ag']
irreps of each MO ['Ag' 'Ag' 'Ag' 'B1u' 'B2u' 'B3u' 'B1u' 'B2u' 'B3u' 'Ag' 'Ag' 'B1g' 'B2g'
 'B3g' 'Ag' 'B1u' 'B2u' 'B3u' 'Ag' 'Ag' 'B1g' 'B2g' 'B3g' 'B1u' 'B2u'
 'B3u' 'Ag' 'Ag' 'Ag' 'B1g' 'B2g' 'B3g' 'B1u' 'B2u' 'B3u' 'Ag']
irreps of each MO ['Ag' 'Ag' 'B2u' 'B1u' 'B3u' 'Ag' 'B2u' 'B3u' 'B1u' 'B2u' 'B3u' 'B1u' 'Ag'
 'B1g' 'Ag' 'B2g' 'B3g' 'Ag' 'B3g' 'B1g' 'B2g' 'Ag' 'Ag' 'B2u' 'B3u' 'B1u'
 'Ag' 'B3g' 'B2g' 'Ag' 'B1g' 'Ag' 'B2u' 'B3u' 'B1u' 'Ag']
