#INFO: **** input file is /lustre09/project/6004934/jaafar1/PySCF-MRCC/Fluorine/neutral/dawCV2Z/UHF/input.py ****
import pyscf
from pyscf import cc, lib, tools, scf, symm, ao2mo
from pyscf.gto.basis import parse_gaussian
from pyscf.scf import atom_hf

name = 'out'
mol = pyscf.M(
    atom = '''
        F
    ''',
    unit = 'angstrom',
    basis = {
            'F' : parse_gaussian.load('F-d-aug-cc-pwCVDZ.gbs', 'F')
    },
    charge = 0,
    spin = 1,
    symmetry = True,
    verbose = 9,
    symmetry_subgroup = 'D2h',
    output = name +'.txt',
    max_memory = 4000,
)

original_AtomSphAverageRHF = atom_hf.AtomSphAverageRHF

class CustomAtomSphAverageRHF(original_AtomSphAverageRHF):
    def __init__(self, mol):
        super().__init__(mol)
        self.max_cycle = 9999
        self.direct_scf = False

atom_hf.AtomSphAverageRHF = CustomAtomSphAverageRHF

mf = mol.UHF().set(
    conv_tol=1e-15,
    max_cycle=9999,
    ddm_tol=1e-14,
    direct_scf=False,
    chkfile=name + '.chk',
    init_guess='atom',
    irrep_nelec={'Ag': 4, 'B3u': 2, 'B2u': 2, 'B1u': 1}
)

mf.kernel()

atom_hf.AtomSphAverageRHF = original_AtomSphAverageRHF

#pyscf.tools.fcidump.from_chkfile_uhf('FCIdump',name+'.chk',tol=1e-18, float_format='% 0.20E',molpro_orbsym=False,orbsym=None)
pyscf.tools.fcidump.from_scf_uhf(mf,'fort.55',tol=1e-18, float_format='% 0.20E',molpro_orbsym=False)
#MRCCInterface.run_mrcc(mf, fort_file='fort.55', mrcc_input_file='MINP', tol=1e-18, float_format='% 0.20E', molpro_orbsym=False)
#INFO: ******************** input file end ********************


System: uname_result(system='Linux', node='rc32201', release='5.14.0-687.15.1.el9_8.x86_64', version='#1 SMP PREEMPT_DYNAMIC Thu Jun 11 08:51:45 EDT 2026', machine='x86_64')  Threads 4
Python 3.13.2 (main, Feb  5 2025, 15:06:39) [GCC 13.3.0]
numpy 2.2.2  scipy 1.15.1  h5py 3.13.0
Date: Fri Jun 19 07:15:54 2026
PySCF version 2.10.0
PySCF path  /home/jaafar1/links/projects/rrg-tzeng/jaafar1/VENV/MRCCInterface/lib/python3.13/site-packages/pyscf

[CONFIG] ARGPARSE = False
[CONFIG] DEBUG = False
[CONFIG] MAX_MEMORY = 4000
[CONFIG] TMPDIR = /tmp
[CONFIG] UNIT = angstrom
[CONFIG] VERBOSE = 3
[CONFIG] conf_file = None
[INPUT] verbose = 9
[INPUT] max_memory = 4000 
[INPUT] num. atoms = 1
[INPUT] num. electrons = 9
[INPUT] charge = 0
[INPUT] spin (= nelec alpha-beta = 2S) = 1
[INPUT] symmetry True subgroup D2h
[INPUT] Mole.unit = angstrom
[INPUT] Symbol           X                Y                Z      unit          X                Y                Z       unit  Magmom
[INPUT]  1 F      0.000000000000   0.000000000000   0.000000000000 AA    0.000000000000   0.000000000000   0.000000000000 Bohr   0.0
[INPUT] ---------------- BASIS SET ---------------- 
[INPUT] l, kappa, [nprim/nctr], expnt,             c_1 c_2 ...
[INPUT] F
[INPUT] 0    0    [9    /2   ]  14710             0.000721 -0.000165
                                2207              0.005553 -0.001308
                                502.8             0.028267 -0.006495
                                142.6             0.106444 -0.026691
                                46.47             0.286814 -0.07369
                                16.7              0.448641 -0.170776
                                6.356             0.264761 -0.112327
                                1.316             0.015333 0.562814
                                0.3897            -0.002332 0.568778
[INPUT] 0    0    [1    /1   ]  6.724                1
[INPUT] 0    0    [1    /1   ]  0.3897               1
[INPUT] 0    0    [1    /1   ]  0.09863              1
[INPUT] 0    0    [1    /1   ]  0.025                1
[INPUT] 1    0    [1    /1   ]  16.803               1
[INPUT] 1    0    [4    /1   ]  22.67             0.044878
                                4.977             0.235718
                                1.347             0.508521
                                0.3471            0.45812
[INPUT] 1    0    [1    /1   ]  0.3471               1
[INPUT] 1    0    [1    /1   ]  0.08502              1
[INPUT] 1    0    [1    /1   ]  0.0208               1
[INPUT] 2    0    [1    /1   ]  1.64                 1
[INPUT] 2    0    [1    /1   ]  0.464                1
[INPUT] 2    0    [1    /1   ]  0.131                1

nuclear repulsion = 0
point group symmetry = SO3, use subgroup D2h
symmetry origin: [0. 0. 0.]
symmetry axis x: [1. 0. 0.]
symmetry axis y: [0. 1. 0.]
symmetry axis z: [0. 0. 1.]
num. orbitals of irrep Ag = 12
num. orbitals of irrep B1g = 3
num. orbitals of irrep B2g = 3
num. orbitals of irrep B3g = 3
num. orbitals of irrep B1u = 5
num. orbitals of irrep B2u = 5
num. orbitals of irrep B3u = 5
number of shells = 13
number of NR pGTOs = 52
number of NR cGTOs = 36
basis = {'F': [[0, [14710.0, 0.000721, -0.000165], [2207.0, 0.005553, -0.001308], [502.8, 0.028267, -0.006495], [142.6, 0.106444, -0.026691], [46.47, 0.286814, -0.07369], [16.7, 0.448641, -0.170776], [6.356, 0.264761, -0.112327], [1.316, 0.015333, 0.562814], [0.3897, -0.002332, 0.568778]], [0, [6.724, 1.0]], [0, [0.3897, 1.0]], [0, [0.09863, 1.0]], [0, [0.025, 1.0]], [1, [16.803, 1.0]], [1, [22.67, 0.044878], [4.977, 0.235718], [1.347, 0.508521], [0.3471, 0.45812]], [1, [0.3471, 1.0]], [1, [0.08502, 1.0]], [1, [0.0208, 1.0]], [2, [1.64, 1.0]], [2, [0.464, 1.0]], [2, [0.131, 1.0]]]}
ecp = {}
bas 0, expnt(s) = [1.471e+04 2.207e+03 5.028e+02 1.426e+02 4.647e+01 1.670e+01 6.356e+00
 1.316e+00 3.897e-01]
bas 1, expnt(s) = [6.724]
bas 2, expnt(s) = [0.3897]
bas 3, expnt(s) = [0.09863]
bas 4, expnt(s) = [0.025]
bas 5, expnt(s) = [16.803]
bas 6, expnt(s) = [22.67    4.977   1.347   0.3471]
bas 7, expnt(s) = [0.3471]
bas 8, expnt(s) = [0.08502]
bas 9, expnt(s) = [0.0208]
bas 10, expnt(s) = [1.64]
bas 11, expnt(s) = [0.464]
bas 12, expnt(s) = [0.131]
CPU time:         0.91
arg.atm = [[ 9 20  1 23  0  0]]
arg.bas = [[ 0  0  9  2  0 24 33  0]
 [ 0  0  1  1  0 51 52  0]
 [ 0  0  1  1  0 53 54  0]
 [ 0  0  1  1  0 55 56  0]
 [ 0  0  1  1  0 57 58  0]
 [ 0  1  1  1  0 59 60  0]
 [ 0  1  4  1  0 61 65  0]
 [ 0  1  1  1  0 69 70  0]
 [ 0  1  1  1  0 71 72  0]
 [ 0  1  1  1  0 73 74  0]
 [ 0  2  1  1  0 75 76  0]
 [ 0  2  1  1  0 77 78  0]
 [ 0  2  1  1  0 79 80  0]]
arg.env = [ 0.00000000e+00  0.00000000e+00  0.00000000e+00  0.00000000e+00
  0.00000000e+00  0.00000000e+00  0.00000000e+00  0.00000000e+00
  0.00000000e+00  0.00000000e+00  0.00000000e+00  0.00000000e+00
  0.00000000e+00  0.00000000e+00  0.00000000e+00  0.00000000e+00
  0.00000000e+00  0.00000000e+00  0.00000000e+00  0.00000000e+00
  0.00000000e+00  0.00000000e+00  0.00000000e+00  0.00000000e+00
  1.47100000e+04  2.20700000e+03  5.02800000e+02  1.42600000e+02
  4.64700000e+01  1.67000000e+01  6.35600000e+00  1.31600000e+00
  3.89700000e-01  2.43310018e+00  4.51746342e+00  7.58300587e+00
  1.10975230e+01  1.28971892e+01  9.36378719e+00  2.67767060e+00
  4.75975144e-02 -2.90597298e-03 -5.56812232e-01 -1.06408130e+00
 -1.74237217e+00 -2.78272191e+00 -3.31362516e+00 -3.56434315e+00
 -1.13602371e+00  1.74711755e+00  7.08770955e-01  6.72400000e+00
  1.05495954e+01  3.89700000e-01  1.24612850e+00  9.86300000e-02
  4.44653586e-01  2.50000000e-02  1.58843713e-01  1.68030000e+01
  9.92471231e+01  2.26700000e+01  4.97700000e+00  1.34700000e+00
  3.47100000e-01  6.47637964e+00  5.11195124e+00  2.15279557e+00
  3.56067162e-01  3.47100000e-01  7.77235555e-01  8.50200000e-02
  1.33932436e-01  2.08000000e-02  2.30443022e-02  1.64000000e+00
  6.20163383e+00  4.64000000e-01  6.80668812e-01  1.31000000e-01
  7.44310513e-02]
ecpbas  = []


******** <class 'pyscf.scf.uhf_symm.SymAdaptedUHF'> ********
method = SymAdaptedUHF
initial guess = atom
damping factor = 0
level_shift factor = 0
DIIS = <class 'pyscf.scf.diis.CDIIS'>
diis_start_cycle = 1
diis_space = 8
diis_damp = 0
SCF conv_tol = 1e-15
SCF conv_tol_grad = None
SCF ddm_tol = 1e-14
SCF max_cycles = 9999
direct_scf = False
chkfile to save SCF result = out.chk
max_memory 4000 MB (current use 122 MB)
number electrons alpha = 5  beta = 4
irrep_nelec {'Ag': 4, 'B3u': 2, 'B2u': 2, 'B1u': 1}
Freeze 9 electrons in irreps ['Ag', 'B3u', 'B2u', 'B1u']
    0 free electrons in irreps B1g B2g B3g
cond(S) = 144.96723065742424

WARN: Singularity detected in overlap matrix (condition number =  145). SCF may be inaccurate and hard to converge.

Set gradient conv threshold to 3.16228e-08
Spherically averaged atomic HF for {'F'}


******** <class '__main__.CustomAtomSphAverageRHF'> ********
method = CustomAtomSphAverageRHF
initial guess = minao
damping factor = 0
level_shift factor = 0
DIIS = <class 'pyscf.scf.diis.CDIIS'>
diis_start_cycle = 1
diis_space = 8
diis_damp = 0
SCF conv_tol = 1e-09
SCF conv_tol_grad = None
SCF ddm_tol = 1e-10
SCF max_cycles = 9999
direct_scf = False
chkfile to save SCF result = /tmp/tmpj1sc8yga
max_memory 4000 MB (current use 123 MB)
atom = F
Set gradient conv threshold to 3.16228e-05
Initial guess from minao.
Nelec from initial guess = 8.998050877267426
E1 = -139.02285746312862  E_coul = 39.99543047868566
init E= -99.027426984443
l = 0  e_0 = -26.4056022
l = 0  e_1 = -1.59551885
l = 0  e_2 = 0.0424512655
l = 0  e_3 = 0.326380583
l = 0  e_4 = 2.27609461
l = 0  e_5 = 25.0567053
l = 1  e_0 = -0.607587434
l = 1  e_1 = 0.0506757899
l = 1  e_2 = 0.290565854
l = 1  e_3 = 1.62845284
l = 1  e_4 = 23.1743991
l = 2  e_0 = 0.420459631
l = 2  e_1 = 1.53988836
l = 2  e_2 = 4.93146848
    CPU time for initialize scf      0.05 sec, wall time      0.02 sec
l = 0  e_0 = -26.4056022
l = 0  e_1 = -1.59551885
l = 0  e_2 = 0.0424512655
l = 0  e_3 = 0.326380583
l = 0  e_4 = 2.27609461
l = 0  e_5 = 25.0567053
l = 1  e_0 = -0.607587434
l = 1  e_1 = 0.0506757899
l = 1  e_2 = 0.290565854
l = 1  e_3 = 1.62845284
l = 1  e_4 = 23.1743991
l = 2  e_0 = 0.420459631
l = 2  e_1 = 1.53988836
l = 2  e_2 = 4.93146848
l = 0  occ = 2 + 0
l = 1  occ = 0 + 1.667
l = 2  occ = 0 + 0
l = 3  occ = 0 + 0
E1 = -138.5659247385642  E_coul = 39.53144629975609
cycle= 1 E= -99.0344784388081  delta_E= -0.00705  |g|=    0  |ddm|= 0.0946
    CPU time for cycle= 1      0.00 sec, wall time      0.00 sec
diis-norm(errvec)=0.0911072
diis-c [-0.00830052  1.        ]
l = 0  e_0 = -26.521884
l = 0  e_1 = -1.63206968
l = 0  e_2 = 0.0429182966
l = 0  e_3 = 0.324635009
l = 0  e_4 = 2.25094209
l = 0  e_5 = 24.9661344
l = 1  e_0 = -0.639213087
l = 1  e_1 = 0.0508951297
l = 1  e_2 = 0.28946544
l = 1  e_3 = 1.60752275
l = 1  e_4 = 23.0742652
l = 2  e_0 = 0.421453291
l = 2  e_1 = 1.53262906
l = 2  e_2 = 4.90098379
l = 0  occ = 2 + 0
l = 1  occ = 0 + 1.667
l = 2  occ = 0 + 0
l = 3  occ = 0 + 0
E1 = -138.84381953251403  E_coul = 39.80881152629278
cycle= 2 E= -99.0350080062213  delta_E= -0.00053  |g|=    0  |ddm|= 0.0523
    CPU time for cycle= 2      0.01 sec, wall time      0.00 sec
diis-norm(errvec)=0.0460891
diis-c [-1.18475030e-04  3.31154655e-01  6.68845345e-01]
l = 0  e_0 = -26.4806659
l = 0  e_1 = -1.61673679
l = 0  e_2 = 0.0431648599
l = 0  e_3 = 0.326633819
l = 0  e_4 = 2.26226885
l = 0  e_5 = 24.9993894
l = 1  e_0 = -0.624695351
l = 1  e_1 = 0.0509510432
l = 1  e_2 = 0.290699753
l = 1  e_3 = 1.61810689
l = 1  e_4 = 23.1107812
l = 2  e_0 = 0.422211157
l = 2  e_1 = 1.53795692
l = 2  e_2 = 4.91591801
l = 0  occ = 2 + 0
l = 1  occ = 0 + 1.667
l = 2  occ = 0 + 0
l = 3  occ = 0 + 0
E1 = -138.75499548713947  E_coul = 39.719839808899444
cycle= 3 E= -99.03515567824  delta_E= -0.000148  |g|=    0  |ddm|= 0.0152
    CPU time for cycle= 3      0.01 sec, wall time      0.00 sec
diis-norm(errvec)=0.00198349
diis-c [-7.59381406e-08 -7.46596060e-02 -1.39129125e-01  1.21378873e+00]
l = 0  e_0 = -26.4803907
l = 0  e_1 = -1.61629399
l = 0  e_2 = 0.0432264313
l = 0  e_3 = 0.326884431
l = 0  e_4 = 2.26273243
l = 0  e_5 = 24.9997807
l = 1  e_0 = -0.624048339
l = 1  e_1 = 0.0509591666
l = 1  e_2 = 0.290846113
l = 1  e_3 = 1.61872461
l = 1  e_4 = 23.1111683
l = 2  e_0 = 0.422406027
l = 2  e_1 = 1.53847143
l = 2  e_2 = 4.91671483
l = 0  occ = 2 + 0
l = 1  occ = 0 + 1.667
l = 2  occ = 0 + 0
l = 3  occ = 0 + 0
E1 = -138.75678027641848  E_coul = 39.72162365921586
cycle= 4 E= -99.0351566172026  delta_E= -9.39e-07  |g|=    0  |ddm|= 0.000726
    CPU time for cycle= 4      0.00 sec, wall time      0.00 sec
diis-norm(errvec)=3.19422e-05
diis-c [-3.46469651e-10  5.67069832e-03  1.03376510e-02 -9.85817539e-02
  1.08257340e+00]
l = 0  e_0 = -26.4803777
l = 0  e_1 = -1.61628804
l = 0  e_2 = 0.0432264598
l = 0  e_3 = 0.326884098
l = 0  e_4 = 2.26273578
l = 0  e_5 = 24.9997922
l = 1  e_0 = -0.624040822
l = 1  e_1 = 0.0509589586
l = 1  e_2 = 0.290845163
l = 1  e_3 = 1.61872687
l = 1  e_4 = 23.1111799
l = 2  e_0 = 0.42240632
l = 2  e_1 = 1.53847305
l = 2  e_2 = 4.91671957
l = 0  occ = 2 + 0
l = 1  occ = 0 + 1.667
l = 2  occ = 0 + 0
l = 3  occ = 0 + 0
E1 = -138.75681097081565  E_coul = 39.721654353389766
cycle= 5 E= -99.0351566174259  delta_E= -2.23e-10  |g|=    0  |ddm|= 1.36e-05
    CPU time for cycle= 5      0.01 sec, wall time      0.00 sec
diis-norm(errvec)=6.40868e-06
diis-c [-3.33001225e-12 -3.65486958e-05 -1.93732361e-04  1.16488364e-03
 -5.46211167e-02  1.05368651e+00]
l = 0  e_0 = -26.4803734
l = 0  e_1 = -1.61628565
l = 0  e_2 = 0.0432265652
l = 0  e_3 = 0.326884599
l = 0  e_4 = 2.26273783
l = 0  e_5 = 24.9997961
l = 1  e_0 = -0.624038889
l = 1  e_1 = 0.0509589905
l = 1  e_2 = 0.290845515
l = 1  e_3 = 1.61872859
l = 1  e_4 = 23.111184
l = 2  e_0 = 0.422406578
l = 2  e_1 = 1.53847415
l = 2  e_2 = 4.91672197
l = 0  occ = 2 + 0
l = 1  occ = 0 + 1.667
l = 2  occ = 0 + 0
l = 3  occ = 0 + 0
E1 = -138.756799412311  E_coul = 39.72164279488207
cycle= 6 E= -99.0351566174289  delta_E= -3.06e-12  |g|=    0  |ddm|= 4.28e-06
    CPU time for cycle= 6      0.01 sec, wall time      0.00 sec
diis-norm(errvec)=2.7276e-07
diis-c [-8.18512434e-15 -2.89191267e-05 -3.80811306e-05  4.93270335e-04
 -2.58362352e-03 -8.64309897e-02  1.08858834e+00]
l = 0  e_0 = -26.4803736
l = 0  e_1 = -1.6162857
l = 0  e_2 = 0.0432265665
l = 0  e_3 = 0.326884597
l = 0  e_4 = 2.2627378
l = 0  e_5 = 24.999796
l = 1  e_0 = -0.624038971
l = 1  e_1 = 0.0509589904
l = 1  e_2 = 0.290845511
l = 1  e_3 = 1.61872853
l = 1  e_4 = 23.1111838
l = 2  e_0 = 0.422406578
l = 2  e_1 = 1.53847413
l = 2  e_2 = 4.91672189
l = 0  occ = 2 + 0
l = 1  occ = 0 + 1.667
l = 2  occ = 0 + 0
l = 3  occ = 0 + 0
E1 = -138.7567999183727  E_coul = 39.721643300943654
cycle= 7 E= -99.0351566174291  delta_E= -1.14e-13  |g|=    0  |ddm|= 1.93e-07
    CPU time for cycle= 7      0.01 sec, wall time      0.00 sec
diis-norm(errvec)=3.36259e-08
Linear dependence found in DIIS error vectors.
diis-c [-2.74705915e-15 -1.36837734e-05 -1.81010618e-05  2.31739042e-04
 -1.10501436e-03 -4.32438981e-02  4.99370416e-01  5.44778542e-01]
l = 0  e_0 = -26.4803736
l = 0  e_1 = -1.61628569
l = 0  e_2 = 0.0432265667
l = 0  e_3 = 0.326884598
l = 0  e_4 = 2.26273781
l = 0  e_5 = 24.999796
l = 1  e_0 = -0.624038966
l = 1  e_1 = 0.0509589904
l = 1  e_2 = 0.290845511
l = 1  e_3 = 1.61872854
l = 1  e_4 = 23.1111838
l = 2  e_0 = 0.422406579
l = 2  e_1 = 1.53847413
l = 2  e_2 = 4.91672189
l = 0  occ = 2 + 0
l = 1  occ = 0 + 1.667
l = 2  occ = 0 + 0
l = 3  occ = 0 + 0
E1 = -138.75679991060457  E_coul = 39.721643293175624
cycle= 8 E= -99.035156617429  delta_E= 9.95e-14  |g|=    0  |ddm|= 1.37e-08
    CPU time for cycle= 8      0.00 sec, wall time      0.00 sec
diis-norm(errvec)=1.92881e-08
Linear dependence found in DIIS error vectors.
diis-c [-1.37506304e-15 -8.97991387e-06 -1.18975405e-05  1.51517204e-04
 -6.79840345e-04 -2.93015164e-02  3.23225814e-01  3.52854385e-01
  3.53770518e-01]
l = 0  e_0 = -26.4803736
l = 0  e_1 = -1.61628569
l = 0  e_2 = 0.0432265668
l = 0  e_3 = 0.326884599
l = 0  e_4 = 2.26273781
l = 0  e_5 = 24.999796
l = 1  e_0 = -0.624038965
l = 1  e_1 = 0.0509589904
l = 1  e_2 = 0.290845511
l = 1  e_3 = 1.61872854
l = 1  e_4 = 23.1111838
l = 2  e_0 = 0.422406579
l = 2  e_1 = 1.53847413
l = 2  e_2 = 4.9167219
l = 0  occ = 2 + 0
l = 1  occ = 0 + 1.667
l = 2  occ = 0 + 0
l = 3  occ = 0 + 0
E1 = -138.75679990710657  E_coul = 39.72164328967756
cycle= 9 E= -99.035156617429  delta_E= -5.68e-14  |g|=    0  |ddm|= 5.09e-09
    CPU time for cycle= 9      0.01 sec, wall time      0.00 sec
diis-norm(errvec)=1.38901e-08
Linear dependence found in DIIS error vectors.
diis-c [-1.99963815e-15  2.61861814e-01  3.52990072e-06 -9.84621232e-09
  2.59731681e-04 -2.30388993e-02  2.38403786e-01  2.60907778e-01
  2.61602269e-01]
l = 0  e_0 = -26.4803736
l = 0  e_1 = -1.61628569
l = 0  e_2 = 0.0432265668
l = 0  e_3 = 0.326884599
l = 0  e_4 = 2.26273781
l = 0  e_5 = 24.999796
l = 1  e_0 = -0.624038965
l = 1  e_1 = 0.0509589904
l = 1  e_2 = 0.290845511
l = 1  e_3 = 1.61872854
l = 1  e_4 = 23.1111838
l = 2  e_0 = 0.422406579
l = 2  e_1 = 1.53847413
l = 2  e_2 = 4.91672189
l = 0  occ = 2 + 0
l = 1  occ = 0 + 1.667
l = 2  occ = 0 + 0
l = 3  occ = 0 + 0
E1 = -138.75679991344688  E_coul = 39.721643296017966
cycle= 10 E= -99.0351566174289  delta_E= 8.53e-14  |g|=    0  |ddm|= 9.94e-10
    CPU time for cycle= 10      0.01 sec, wall time      0.00 sec
diis-norm(errvec)=1.44092e-08
Linear dependence found in DIIS error vectors.
diis-c [-3.12203871e-16  2.56464243e-01  2.57844352e-01 -1.81904523e-06
  1.52001118e-04 -3.22809289e-03 -1.21464452e-02  2.46954506e-01
  2.53961256e-01]
l = 0  e_0 = -26.4803736
l = 0  e_1 = -1.61628568
l = 0  e_2 = 0.0432265669
l = 0  e_3 = 0.3268846
l = 0  e_4 = 2.26273781
l = 0  e_5 = 24.999796
l = 1  e_0 = -0.624038961
l = 1  e_1 = 0.0509589904
l = 1  e_2 = 0.290845511
l = 1  e_3 = 1.61872854
l = 1  e_4 = 23.1111838
l = 2  e_0 = 0.422406579
l = 2  e_1 = 1.53847413
l = 2  e_2 = 4.9167219
l = 0  occ = 2 + 0
l = 1  occ = 0 + 1.667
l = 2  occ = 0 + 0
l = 3  occ = 0 + 0
E1 = -138.75679990030113  E_coul = 39.72164328287223
cycle= 11 E= -99.0351566174289  delta_E= 2.84e-14  |g|=    0  |ddm|= 9.19e-09
    CPU time for cycle= 11      0.01 sec, wall time      0.00 sec
diis-norm(errvec)=3.58276e-09
Linear dependence found in DIIS error vectors.
diis-c [-1.00143898e-15  2.03806101e-01  2.04764206e-01  2.06846519e-01
  7.85941721e-05 -2.61090972e-03 -1.28470539e-02  1.97748760e-01
  2.02213783e-01]
l = 0  e_0 = -26.4803736
l = 0  e_1 = -1.61628568
l = 0  e_2 = 0.0432265669
l = 0  e_3 = 0.3268846
l = 0  e_4 = 2.26273781
l = 0  e_5 = 24.999796
l = 1  e_0 = -0.624038961
l = 1  e_1 = 0.0509589904
l = 1  e_2 = 0.290845511
l = 1  e_3 = 1.61872854
l = 1  e_4 = 23.1111838
l = 2  e_0 = 0.422406579
l = 2  e_1 = 1.53847413
l = 2  e_2 = 4.9167219
l = 0  occ = 2 + 0
l = 1  occ = 0 + 1.667
l = 2  occ = 0 + 0
l = 3  occ = 0 + 0
E1 = -138.75679989869343  E_coul = 39.72164328126437
cycle= 12 E= -99.0351566174291  delta_E= -1.71e-13  |g|=    0  |ddm|= 1.08e-09
    CPU time for cycle= 12      0.01 sec, wall time      0.00 sec
diis-norm(errvec)=2.60178e-09
Linear dependence found in DIIS error vectors.
diis-c [-5.87570002e-17  1.68534712e-01  1.69405279e-01  1.70867285e-01
  1.71097966e-01 -2.03924207e-03 -9.01181193e-03  1.63832708e-01
  1.67313103e-01]
l = 0  e_0 = -26.4803736
l = 0  e_1 = -1.61628568
l = 0  e_2 = 0.043226567
l = 0  e_3 = 0.3268846
l = 0  e_4 = 2.26273781
l = 0  e_5 = 24.999796
l = 1  e_0 = -0.62403896
l = 1  e_1 = 0.0509589904
l = 1  e_2 = 0.290845512
l = 1  e_3 = 1.61872854
l = 1  e_4 = 23.1111838
l = 2  e_0 = 0.422406579
l = 2  e_1 = 1.53847413
l = 2  e_2 = 4.9167219
l = 0  occ = 2 + 0
l = 1  occ = 0 + 1.667
l = 2  occ = 0 + 0
l = 3  occ = 0 + 0
E1 = -138.75679989765888  E_coul = 39.72164328022992
cycle= 13 E= -99.035156617429  delta_E= 1.14e-13  |g|=    0  |ddm|= 4.49e-10
    CPU time for cycle= 13      0.01 sec, wall time      0.00 sec
diis-norm(errvec)=1.8922e-09
Linear dependence found in DIIS error vectors.
diis-c [-1.62349090e-16  1.41412969e-01  1.42124457e-01  1.40733861e-01
  1.40662458e-01  1.40460709e-01  1.03142680e-02  1.42527010e-01
  1.41764268e-01]
l = 0  e_0 = -26.4803736
l = 0  e_1 = -1.61628568
l = 0  e_2 = 0.0432265669
l = 0  e_3 = 0.3268846
l = 0  e_4 = 2.26273781
l = 0  e_5 = 24.999796
l = 1  e_0 = -0.62403896
l = 1  e_1 = 0.0509589904
l = 1  e_2 = 0.290845512
l = 1  e_3 = 1.61872854
l = 1  e_4 = 23.1111838
l = 2  e_0 = 0.422406579
l = 2  e_1 = 1.53847413
l = 2  e_2 = 4.9167219
l = 0  occ = 2 + 0
l = 1  occ = 0 + 1.667
l = 2  occ = 0 + 0
l = 3  occ = 0 + 0
E1 = -138.75679989081857  E_coul = 39.721643273389574
cycle= 14 E= -99.035156617429  delta_E= -4.26e-14  |g|=    0  |ddm|= 1.03e-09
    CPU time for cycle= 14      0.01 sec, wall time      0.00 sec
diis-norm(errvec)=2.86857e-09
Linear dependence found in DIIS error vectors.
diis-c [-3.83815955e-16  1.25000000e-01  1.25000000e-01  1.25000000e-01
  1.25000000e-01  1.25000000e-01  1.25000000e-01  1.25000000e-01
  1.25000000e-01]
l = 0  e_0 = -26.4803736
l = 0  e_1 = -1.61628568
l = 0  e_2 = 0.043226567
l = 0  e_3 = 0.3268846
l = 0  e_4 = 2.26273781
l = 0  e_5 = 24.999796
l = 1  e_0 = -0.624038959
l = 1  e_1 = 0.0509589904
l = 1  e_2 = 0.290845512
l = 1  e_3 = 1.61872854
l = 1  e_4 = 23.1111838
l = 2  e_0 = 0.422406579
l = 2  e_1 = 1.53847413
l = 2  e_2 = 4.9167219
l = 0  occ = 2 + 0
l = 1  occ = 0 + 1.667
l = 2  occ = 0 + 0
l = 3  occ = 0 + 0
E1 = -138.75679988981494  E_coul = 39.72164327238603
cycle= 15 E= -99.0351566174289  delta_E= 8.53e-14  |g|=    0  |ddm|= 1.08e-09
    CPU time for cycle= 15      0.00 sec, wall time      0.00 sec
diis-norm(errvec)=3.01466e-09
Linear dependence found in DIIS error vectors.
diis-c [-3.83815955e-16  1.25000000e-01  1.25000000e-01  1.25000000e-01
  1.25000000e-01  1.25000000e-01  1.25000000e-01  1.25000000e-01
  1.25000000e-01]
l = 0  e_0 = -26.4803736
l = 0  e_1 = -1.61628568
l = 0  e_2 = 0.043226567
l = 0  e_3 = 0.3268846
l = 0  e_4 = 2.26273781
l = 0  e_5 = 24.999796
l = 1  e_0 = -0.62403896
l = 1  e_1 = 0.0509589904
l = 1  e_2 = 0.290845512
l = 1  e_3 = 1.61872854
l = 1  e_4 = 23.1111838
l = 2  e_0 = 0.422406579
l = 2  e_1 = 1.53847413
l = 2  e_2 = 4.9167219
l = 0  occ = 2 + 0
l = 1  occ = 0 + 1.667
l = 2  occ = 0 + 0
l = 3  occ = 0 + 0
E1 = -138.75679989258134  E_coul = 39.721643275152296
cycle= 16 E= -99.035156617429  delta_E= -1.28e-13  |g|=    0  |ddm|= 3.64e-10
    CPU time for cycle= 16      0.01 sec, wall time      0.00 sec
diis-norm(errvec)=1.79033e-09
Linear dependence found in DIIS error vectors.
diis-c [-2.89052492e-16  1.25000000e-01  1.25000000e-01  1.25000000e-01
  1.25000000e-01  1.25000000e-01  1.25000000e-01  1.25000000e-01
  1.25000000e-01]
l = 0  e_0 = -26.4803736
l = 0  e_1 = -1.61628568
l = 0  e_2 = 0.043226567
l = 0  e_3 = 0.3268846
l = 0  e_4 = 2.26273781
l = 0  e_5 = 24.999796
l = 1  e_0 = -0.62403896
l = 1  e_1 = 0.0509589904
l = 1  e_2 = 0.290845512
l = 1  e_3 = 1.61872854
l = 1  e_4 = 23.1111838
l = 2  e_0 = 0.422406579
l = 2  e_1 = 1.53847413
l = 2  e_2 = 4.9167219
l = 0  occ = 2 + 0
l = 1  occ = 0 + 1.667
l = 2  occ = 0 + 0
l = 3  occ = 0 + 0
E1 = -138.7567998942362  E_coul = 39.721643276807235
cycle= 17 E= -99.035156617429  delta_E= 8.53e-14  |g|=    0  |ddm|= 2.19e-10
    CPU time for cycle= 17      0.01 sec, wall time      0.00 sec
diis-norm(errvec)=1.07495e-09
Linear dependence found in DIIS error vectors.
diis-c [-2.89052492e-16  1.25000000e-01  1.25000000e-01  1.25000000e-01
  1.25000000e-01  1.25000000e-01  1.25000000e-01  1.25000000e-01
  1.25000000e-01]
l = 0  e_0 = -26.4803736
l = 0  e_1 = -1.61628568
l = 0  e_2 = 0.043226567
l = 0  e_3 = 0.3268846
l = 0  e_4 = 2.26273781
l = 0  e_5 = 24.999796
l = 1  e_0 = -0.62403896
l = 1  e_1 = 0.0509589904
l = 1  e_2 = 0.290845512
l = 1  e_3 = 1.61872854
l = 1  e_4 = 23.1111838
l = 2  e_0 = 0.422406579
l = 2  e_1 = 1.53847413
l = 2  e_2 = 4.9167219
l = 0  occ = 2 + 0
l = 1  occ = 0 + 1.667
l = 2  occ = 0 + 0
l = 3  occ = 0 + 0
E1 = -138.7567998954129  E_coul = 39.72164327798393
cycle= 18 E= -99.035156617429  delta_E= -2.84e-14  |g|=    0  |ddm|= 1.57e-10
    CPU time for cycle= 18      0.01 sec, wall time      0.00 sec
diis-norm(errvec)=6.02303e-10
Linear dependence found in DIIS error vectors.
diis-c [-2.89052492e-16  1.25000000e-01  1.25000000e-01  1.25000000e-01
  1.25000000e-01  1.25000000e-01  1.25000000e-01  1.25000000e-01
  1.25000000e-01]
l = 0  e_0 = -26.4803736
l = 0  e_1 = -1.61628568
l = 0  e_2 = 0.043226567
l = 0  e_3 = 0.3268846
l = 0  e_4 = 2.26273781
l = 0  e_5 = 24.999796
l = 1  e_0 = -0.62403896
l = 1  e_1 = 0.0509589904
l = 1  e_2 = 0.290845512
l = 1  e_3 = 1.61872854
l = 1  e_4 = 23.1111838
l = 2  e_0 = 0.422406579
l = 2  e_1 = 1.53847413
l = 2  e_2 = 4.9167219
l = 0  occ = 2 + 0
l = 1  occ = 0 + 1.667
l = 2  occ = 0 + 0
l = 3  occ = 0 + 0
E1 = -138.75679989683167  E_coul = 39.721643279402606
cycle= 19 E= -99.0351566174291  delta_E= -8.53e-14  |g|=    0  |ddm|= 1.92e-10
    CPU time for cycle= 19      0.01 sec, wall time      0.00 sec
diis-norm(errvec)=4.78541e-10
Linear dependence found in DIIS error vectors.
diis-c [-2.89052492e-16  1.25000000e-01  1.25000000e-01  1.25000000e-01
  1.25000000e-01  1.25000000e-01  1.25000000e-01  1.25000000e-01
  1.25000000e-01]
l = 0  e_0 = -26.4803736
l = 0  e_1 = -1.61628568
l = 0  e_2 = 0.043226567
l = 0  e_3 = 0.3268846
l = 0  e_4 = 2.26273781
l = 0  e_5 = 24.999796
l = 1  e_0 = -0.62403896
l = 1  e_1 = 0.0509589904
l = 1  e_2 = 0.290845512
l = 1  e_3 = 1.61872854
l = 1  e_4 = 23.1111838
l = 2  e_0 = 0.422406579
l = 2  e_1 = 1.53847413
l = 2  e_2 = 4.9167219
l = 0  occ = 2 + 0
l = 1  occ = 0 + 1.667
l = 2  occ = 0 + 0
l = 3  occ = 0 + 0
E1 = -138.75679989711594  E_coul = 39.721643279686965
cycle= 20 E= -99.035156617429  delta_E= 8.53e-14  |g|=    0  |ddm|= 3.92e-11
    CPU time for cycle= 20      0.00 sec, wall time      0.00 sec
l = 0  e_0 = -26.4803736
l = 0  e_1 = -1.61628568
l = 0  e_2 = 0.043226567
l = 0  e_3 = 0.3268846
l = 0  e_4 = 2.26273781
l = 0  e_5 = 24.999796
l = 1  e_0 = -0.62403896
l = 1  e_1 = 0.0509589904
l = 1  e_2 = 0.290845512
l = 1  e_3 = 1.61872854
l = 1  e_4 = 23.1111838
l = 2  e_0 = 0.42240658
l = 2  e_1 = 1.53847413
l = 2  e_2 = 4.9167219
l = 0  occ = 2 + 0
l = 1  occ = 0 + 1.667
l = 2  occ = 0 + 0
l = 3  occ = 0 + 0
E1 = -138.75679989609472  E_coul = 39.72164327866576
Extra cycle  E= -99.035156617429  delta_E= 2.84e-14  |g|=    0  |ddm|= 3.92e-11
    CPU time for scf_cycle      0.20 sec, wall time      0.05 sec
    CPU time for SCF      0.20 sec, wall time      0.05 sec
Atomic HF for atom  F  converged. SCF energy = -99.035156617429

Atom F, E = -99.0351566174
Nelec from initial guess = (np.float64(4.5), np.float64(4.5))
E1 = -138.75679989609472  Ecoul = 39.72164327866575
init E= -99.035156617429
    CPU time for initialize scf      0.23 sec, wall time      0.06 sec
alpha HOMO (B3u) = -0.624038959930786  LUMO (Ag) = 0.0432265669931014
alpha irrep_nelec = [2, 0, 0, 0, 1, 1, 1]
beta  irrep_nelec = [2, 0, 0, 0, 0, 1, 1]
alpha-Ag nocc = 2  HOMO = -1.61628567924835  LUMO = 0.0432265669931014
   mo_energy = [-26.48037359  -1.61628568   0.04322657   0.3268846    0.42240658
   0.42240658   1.53847413   1.53847413   2.26273781   4.9167219
   4.9167219   24.99979599]
alpha-B1g nocc = 0
   mo_energy = [0.42240658 1.53847413 4.9167219 ]
alpha-B2g nocc = 0
   mo_energy = [0.42240658 1.53847413 4.9167219 ]
alpha-B3g nocc = 0
   mo_energy = [0.42240658 1.53847413 4.9167219 ]
alpha-B1u nocc = 1  HOMO = -0.624038959930789  LUMO = 0.0509589903761737
   mo_energy = [-0.62403896  0.05095899  0.29084551  1.61872854 23.1111838 ]
alpha-B2u nocc = 1  HOMO = -0.624038959930789  LUMO = 0.0509589903761734
   mo_energy = [-0.62403896  0.05095899  0.29084551  1.61872854 23.1111838 ]
alpha-B3u nocc = 1  HOMO = -0.624038959930786  LUMO = 0.0509589903761733
   mo_energy = [-0.62403896  0.05095899  0.29084551  1.61872854 23.1111838 ]
beta-Ag nocc = 2  HOMO = -1.61628567924835  LUMO = 0.0432265669931014
   mo_energy = [-26.48037359  -1.61628568   0.04322657   0.3268846    0.42240658
   0.42240658   1.53847413   1.53847413   2.26273781   4.9167219
   4.9167219   24.99979599]
beta-B1g nocc = 0
   mo_energy = [0.42240658 1.53847413 4.9167219 ]
beta-B2g nocc = 0
   mo_energy = [0.42240658 1.53847413 4.9167219 ]
beta-B3g nocc = 0
   mo_energy = [0.42240658 1.53847413 4.9167219 ]
beta-B1u nocc = 0
   mo_energy = [-0.62403896  0.05095899  0.29084551  1.61872854 23.1111838 ]
beta-B2u nocc = 1  HOMO = -0.624038959930789  LUMO = 0.0509589903761734
   mo_energy = [-0.62403896  0.05095899  0.29084551  1.61872854 23.1111838 ]
beta-B3u nocc = 1  HOMO = -0.624038959930786  LUMO = 0.0509589903761733
   mo_energy = [-0.62403896  0.05095899  0.29084551  1.61872854 23.1111838 ]
multiplicity <S^2> = 0.75  2S+1 = 2
E1 = -138.75679989667583  Ecoul = 39.38418649132588
cycle= 1 E= -99.37261340535  delta_E= -0.337  |g|= 0.15  |ddm|= 0.806
    CPU time for cycle= 1      0.03 sec, wall time      0.01 sec
diis-norm(errvec)=0.211763
diis-c [-0.04484343  1.        ]
alpha HOMO (B2u) = -0.759813389943245  LUMO (Ag) = 0.0425910407836782
alpha irrep_nelec = [2, 0, 0, 0, 1, 1, 1]
beta  irrep_nelec = [2, 0, 0, 0, 0, 1, 1]
alpha-Ag nocc = 2  HOMO = -1.70527094828221  LUMO = 0.0425910407836782
   mo_energy = [-26.50039506  -1.70527095   0.04259104   0.32019604   0.4154648
   0.42569814   1.49633112   1.54278626   2.24008425   4.83749222
   4.92549844  24.98186208]
alpha-B1g nocc = 0
   mo_energy = [0.42569814 1.54278626 4.92549844]
alpha-B2g nocc = 0
   mo_energy = [0.41750542 1.50808141 4.85881883]
alpha-B3g nocc = 0
   mo_energy = [0.41750542 1.50808141 4.85881883]
alpha-B1u nocc = 1  HOMO = -0.850180309398198  LUMO = 0.0496192470812148
   mo_energy = [-0.85018031  0.04961925  0.27647691  1.54888239 23.04343545]
alpha-B2u nocc = 1  HOMO = -0.759813389943245  LUMO = 0.0512097132592891
   mo_energy = [-0.75981339  0.05120971  0.28934804  1.60685337 23.11026192]
alpha-B3u nocc = 1  HOMO = -0.759813389943247  LUMO = 0.0512097132592891
   mo_energy = [-0.75981339  0.05120971  0.28934804  1.60685337 23.11026192]
beta-Ag nocc = 2  HOMO = -1.52994221042174  LUMO = 0.043785703664528
   mo_energy = [-26.46042783  -1.52994221   0.0437857    0.33265801   0.42274472
   0.42652199   1.55036982   1.56441595   2.28606238   4.94105423
   4.9650242   25.01777649]
beta-B1g nocc = 0
   mo_energy = [0.42652199 1.55036982 4.94105423]
beta-B2g nocc = 0
   mo_energy = [0.42349635 1.56050109 4.95844029]
beta-B3g nocc = 0
   mo_energy = [0.42349635 1.56050109 4.95844029]
beta-B1u nocc = 0
   mo_energy = [8.12985849e-04 5.86555450e-02 3.32898849e-01 1.72041718e+00
 2.31532781e+01]
beta-B2u nocc = 1  HOMO = -0.714990144973684  LUMO = 0.051327792253068
   mo_energy = [-0.71499014  0.05132779  0.29221897  1.62444144 23.12502778]
beta-B3u nocc = 1  HOMO = -0.714990144973688  LUMO = 0.0513277922530681
   mo_energy = [-0.71499014  0.05132779  0.29221897  1.62444144 23.12502778]
multiplicity <S^2> = 0.75150725  2S+1 = 2.0015067
E1 = -139.2545615471786  Ecoul = 39.87445609549884
cycle= 2 E= -99.3801054516798  delta_E= -0.00749  |g|= 0.054  |ddm|= 0.0823
    CPU time for cycle= 2      0.03 sec, wall time      0.01 sec
diis-norm(errvec)=0.0764259
diis-c [-0.00567123  0.06175158  0.93824842]
alpha HOMO (B3u) = -0.72373087705474  LUMO (Ag) = 0.0432859778925204
alpha irrep_nelec = [2, 0, 0, 0, 1, 1, 1]
beta  irrep_nelec = [2, 0, 0, 0, 0, 1, 1]
alpha-Ag nocc = 2  HOMO = -1.66833026653198  LUMO = 0.0432859778925204
   mo_energy = [-26.39829722  -1.66833027   0.04328598   0.32595678   0.41784442
   0.42785954   1.51061707   1.55775402   2.26874074   4.870692
   4.96345579  25.06503308]
alpha-B1g nocc = 0
   mo_energy = [0.42785954 1.55775402 4.96345579]
alpha-B2g nocc = 0
   mo_energy = [0.41985878 1.52239596 4.89301304]
alpha-B3g nocc = 0
   mo_energy = [0.41985878 1.52239596 4.89301304]
alpha-B1u nocc = 1  HOMO = -0.827806134702744  LUMO = 0.0496949419180149
   mo_energy = [-0.82780613  0.04969494  0.27850006  1.56899218 23.13141202]
alpha-B2u nocc = 1  HOMO = -0.723730877054742  LUMO = 0.0513299759110292
   mo_energy = [-0.72373088  0.05132998  0.29214586  1.6320645  23.20130573]
alpha-B3u nocc = 1  HOMO = -0.72373087705474  LUMO = 0.0513299759110286
   mo_energy = [-0.72373088  0.05132998  0.29214586  1.6320645  23.20130573]
beta-Ag nocc = 2  HOMO = -1.48366482388775  LUMO = 0.0442430481935312
   mo_energy = [-26.3552718   -1.48366482   0.04424305   0.33761434   0.42381996
   0.42794273   1.56249327   1.57695191   2.31885837   4.97928154
   5.00772795  25.10466736]
beta-B1g nocc = 0
   mo_energy = [0.42794273 1.56249327 4.97928154]
beta-B2g nocc = 0
   mo_energy = [0.42457623 1.57280321 4.99986735]
beta-B3g nocc = 0
   mo_energy = [0.42457623 1.57280321 4.99986735]
beta-B1u nocc = 0
   mo_energy = [ 0.0251012   0.06804417  0.34645094  1.75833965 23.24991551]
beta-B2u nocc = 1  HOMO = -0.677939680626566  LUMO = 0.051453028837885
   mo_energy = [-0.67793968  0.05145303  0.29512607  1.65152908 23.21825205]
beta-B3u nocc = 1  HOMO = -0.677939680626562  LUMO = 0.0514530288378845
   mo_energy = [-0.67793968  0.05145303  0.29512607  1.65152908 23.21825205]
multiplicity <S^2> = 0.7525321  2S+1 = 2.0025305
E1 = -139.0824943781335  Ecoul = 39.70151983418597
cycle= 3 E= -99.3809745439475  delta_E= -0.000869  |g|= 0.0178  |ddm|= 0.0419
    CPU time for cycle= 3      0.03 sec, wall time      0.01 sec
diis-norm(errvec)=0.0251775
diis-c [-2.46925555e-04 -9.07161904e-02  1.06084572e-01  9.84631619e-01]
alpha HOMO (B3u) = -0.73117543479271  LUMO (Ag) = 0.0433248812336635
alpha irrep_nelec = [2, 0, 0, 0, 1, 1, 1]
beta  irrep_nelec = [2, 0, 0, 0, 0, 1, 1]
alpha-Ag nocc = 2  HOMO = -1.67710384559729  LUMO = 0.0433248812336635
   mo_energy = [-26.4219466   -1.67710385   0.04332488   0.32574651   0.41798911
   0.42813234   1.50905107   1.55673044   2.26339456   4.86244019
   4.95654264  25.04662838]
alpha-B1g nocc = 0
   mo_energy = [0.42813234 1.55673044 4.95654264]
alpha-B2g nocc = 0
   mo_energy = [0.42003636 1.52092823 4.88503759]
alpha-B3g nocc = 0
   mo_energy = [0.42003636 1.52092823 4.88503759]
alpha-B1u nocc = 1  HOMO = -0.841838306693468  LUMO = 0.0496296200305565
   mo_energy = [-0.84183831  0.04962962  0.27769013  1.56192362 23.11066418]
alpha-B2u nocc = 1  HOMO = -0.731175434792712  LUMO = 0.0513356040496532
   mo_energy = [-0.73117543  0.0513356   0.29187774  1.62717744 23.18079688]
alpha-B3u nocc = 1  HOMO = -0.73117543479271  LUMO = 0.0513356040496528
   mo_energy = [-0.73117543  0.0513356   0.29187774  1.62717744 23.18079688]
beta-Ag nocc = 2  HOMO = -1.48686904922243  LUMO = 0.0442024267843509
   mo_energy = [-26.3769501   -1.48686905   0.04420243   0.33718502   0.42349486
   0.42774188   1.55989915   1.57505044   2.31563645   4.97342235
   5.00276082  25.08852134]
beta-B1g nocc = 0
   mo_energy = [0.42774188 1.55989915 4.97342235]
beta-B2g nocc = 0
   mo_energy = [0.4242588  1.57067261 4.99464805]
beta-B3g nocc = 0
   mo_energy = [0.4242588  1.57067261 4.99464805]
beta-B1u nocc = 0
   mo_energy = [2.32223281e-02 6.67600605e-02 3.45099956e-01 1.75321213e+00
 2.32314409e+01]
beta-B2u nocc = 1  HOMO = -0.682781691433214  LUMO = 0.0514664374969533
   mo_energy = [-0.68278169  0.05146644  0.29502275  1.64822374 23.19948419]
beta-B3u nocc = 1  HOMO = -0.682781691433213  LUMO = 0.0514664374969531
   mo_energy = [-0.68278169  0.05146644  0.29502275  1.64822374 23.19948419]
multiplicity <S^2> = 0.75318012  2S+1 = 2.0031776
E1 = -139.1261859533357  Ecoul = 39.74504780200845
cycle= 4 E= -99.3811381513272  delta_E= -0.000164  |g|= 0.00512  |ddm|= 0.0143
    CPU time for cycle= 4      0.04 sec, wall time      0.01 sec
diis-norm(errvec)=0.00724028
diis-c [-1.81975109e-05  4.24815428e-02 -7.62945923e-02 -5.61483604e-01
  1.59529665e+00]
alpha HOMO (B2u) = -0.732763228991545  LUMO (Ag) = 0.0433380100808425
alpha irrep_nelec = [2, 0, 0, 0, 1, 1, 1]
beta  irrep_nelec = [2, 0, 0, 0, 0, 1, 1]
alpha-Ag nocc = 2  HOMO = -1.67897945900173  LUMO = 0.0433380100808425
   mo_energy = [-26.42350002  -1.67897946   0.04333801   0.32577841   0.41808563
   0.42827784   1.50927053   1.55693792   2.2625356    4.86125226
   4.95537497  25.04519723]
alpha-B1g nocc = 0
   mo_energy = [0.42827784 1.55693792 4.95537497]
alpha-B2g nocc = 0
   mo_energy = [0.42014329 1.52115601 4.88386473]
alpha-B3g nocc = 0
   mo_energy = [0.42014329 1.52115601 4.88386473]
alpha-B1u nocc = 1  HOMO = -0.844717239275234  LUMO = 0.049598949119225
   mo_energy = [-0.84471724  0.04959895  0.27737655  1.56035847 23.10932102]
alpha-B2u nocc = 1  HOMO = -0.732763228991545  LUMO = 0.0513379399726771
   mo_energy = [-0.73276323  0.05133794  0.29180435  1.62634934 23.17942474]
alpha-B3u nocc = 1  HOMO = -0.732763228991548  LUMO = 0.0513379399726775
   mo_energy = [-0.73276323  0.05133794  0.29180435  1.62634934 23.17942474]
beta-Ag nocc = 2  HOMO = -1.48541596988784  LUMO = 0.044178837641969
   mo_energy = [-26.37639273  -1.48541597   0.04417884   0.33707853   0.42330064
   0.42758667   1.55928243   1.57447925   2.316061     4.97377974
   5.00299509  25.08895092]
beta-B1g nocc = 0
   mo_energy = [0.42758667 1.55928243 4.97377974]
beta-B2g nocc = 0
   mo_energy = [0.42407386 1.57010657 4.99493322]
beta-B3g nocc = 0
   mo_energy = [0.42407386 1.57010657 4.99493322]
beta-B1u nocc = 0
   mo_energy = [2.30990854e-02 6.67331582e-02 3.45168273e-01 1.75337478e+00
 2.32317424e+01]
beta-B2u nocc = 1  HOMO = -0.681152354095243  LUMO = 0.0514816361312608
   mo_energy = [-0.68115235  0.05148164  0.29519579  1.64902834 23.19974232]
beta-B3u nocc = 1  HOMO = -0.681152354095247  LUMO = 0.0514816361312613
   mo_energy = [-0.68115235  0.05148164  0.29519579  1.64902834 23.19974232]
multiplicity <S^2> = 0.75355252  2S+1 = 2.0035494
E1 = -139.1280317379568  Ecoul = 39.746867840117446
cycle= 5 E= -99.3811638978394  delta_E= -2.57e-05  |g|= 0.0012  |ddm|= 0.00582
    CPU time for cycle= 5      0.03 sec, wall time      0.01 sec
diis-norm(errvec)=0.0016923
diis-c [-6.28808628e-07 -5.03791856e-03  1.05582634e-02  1.05176234e-01
 -5.03479168e-01  1.39278259e+00]
alpha HOMO (B2u) = -0.733139034952601  LUMO (Ag) = 0.0433439519311741
alpha irrep_nelec = [2, 0, 0, 0, 1, 1, 1]
beta  irrep_nelec = [2, 0, 0, 0, 0, 1, 1]
alpha-Ag nocc = 2  HOMO = -1.67928772901747  LUMO = 0.0433439519311741
   mo_energy = [-26.42323733  -1.67928773   0.04334395   0.32580577   0.41811544
   0.42832668   1.50940659   1.55707497   2.26248457   4.86126046
   4.95527285  25.04537417]
alpha-B1g nocc = 0
   mo_energy = [0.42832668 1.55707497 4.95527285]
alpha-B2g nocc = 0
   mo_energy = [0.42017467 1.52129137 4.88384405]
alpha-B3g nocc = 0
   mo_energy = [0.42017467 1.52129137 4.88384405]
alpha-B1u nocc = 1  HOMO = -0.844878209046419  LUMO = 0.0495973484583427
   mo_energy = [-0.84487821  0.04959735  0.27737178  1.56032375 23.10963008]
alpha-B2u nocc = 1  HOMO = -0.733139034952601  LUMO = 0.0513380760534428
   mo_energy = [-0.73313903  0.05133808  0.29178652  1.62621814 23.17961032]
alpha-B3u nocc = 1  HOMO = -0.733139034952602  LUMO = 0.0513380760534426
   mo_energy = [-0.73313903  0.05133808  0.29178652  1.62621814 23.17961032]
beta-Ag nocc = 2  HOMO = -1.48489036462733  LUMO = 0.0441694213315523
   mo_energy = [-26.37572883  -1.48489036   0.04416942   0.33704995   0.42325816
   0.42753137   1.55921622   1.57442186   2.31630987   4.97420969
   5.00330243  25.08952641]
beta-B1g nocc = 0
   mo_energy = [0.42753137 1.55921622 4.97420969]
beta-B2g nocc = 0
   mo_energy = [0.4240287  1.57003991 4.99526783]
beta-B3g nocc = 0
   mo_energy = [0.4240287  1.57003991 4.99526783]
beta-B1u nocc = 0
   mo_energy = [2.31419751e-02 6.67748620e-02 3.45241244e-01 1.75360173e+00
 2.32322867e+01]
beta-B2u nocc = 1  HOMO = -0.680341405423062  LUMO = 0.0514854272621049
   mo_energy = [-0.68034141  0.05148543  0.29525504  1.6494447  23.20041102]
beta-B3u nocc = 1  HOMO = -0.680341405423063  LUMO = 0.0514854272621049
   mo_energy = [-0.68034141  0.05148543  0.29525504  1.6494447  23.20041102]
multiplicity <S^2> = 0.75366827  2S+1 = 2.0036649
E1 = -139.12680733093225  Ecoul = 39.74564193264525
cycle= 6 E= -99.381165398287  delta_E= -1.5e-06  |g|= 0.000237  |ddm|= 0.00143
    CPU time for cycle= 6      0.04 sec, wall time      0.01 sec
diis-norm(errvec)=0.000335687
diis-c [-2.11846628e-08  1.15293971e-03 -1.42758013e-03 -3.53040850e-02
  1.91713151e-01 -6.95216144e-01  1.53908172e+00]
alpha HOMO (B2u) = -0.733316045432208  LUMO (Ag) = 0.0433442676730535
alpha irrep_nelec = [2, 0, 0, 0, 1, 1, 1]
beta  irrep_nelec = [2, 0, 0, 0, 0, 1, 1]
alpha-Ag nocc = 2  HOMO = -1.67939225529904  LUMO = 0.0433442676730535
   mo_energy = [-26.42336344  -1.67939226   0.04334427   0.32580158   0.41811556
   0.42833406   1.50938501   1.55707497   2.26242975   4.86120198
   4.95517382  25.04526104]
alpha-B1g nocc = 0
   mo_energy = [0.42833406 1.55707497 4.95517382]
alpha-B2g nocc = 0
   mo_energy = [0.42017524 1.5212762  4.88377743]
alpha-B3g nocc = 0
   mo_energy = [0.42017524 1.5212762  4.88377743]
alpha-B1u nocc = 1  HOMO = -0.844843547005386  LUMO = 0.0495980403371812
   mo_energy = [-0.84484355  0.04959804  0.27737671  1.56033234 23.10954451]
alpha-B2u nocc = 1  HOMO = -0.733316045432208  LUMO = 0.0513371358958697
   mo_energy = [-0.73331605  0.05133714  0.29177159  1.62612112 23.1794635 ]
alpha-B3u nocc = 1  HOMO = -0.733316045432209  LUMO = 0.0513371358958702
   mo_energy = [-0.73331605  0.05133714  0.29177159  1.62612112 23.1794635 ]
beta-Ag nocc = 2  HOMO = -1.48489662814474  LUMO = 0.04416667305992
   mo_energy = [-26.37581692  -1.48489663   0.04416667   0.33703604   0.42325275
   0.42751494   1.55917802   1.57439818   2.31628354   4.97420474
   5.00325502  25.08945069]
beta-B1g nocc = 0
   mo_energy = [0.42751494 1.55917802 4.97420474]
beta-B2g nocc = 0
   mo_energy = [0.42402151 1.57001304 4.99523285]
beta-B3g nocc = 0
   mo_energy = [0.42402151 1.57001304 4.99523285]
beta-B1u nocc = 0
   mo_energy = [2.31190230e-02 6.67603717e-02 3.45226690e-01 1.75355586e+00
 2.32321731e+01]
beta-B2u nocc = 1  HOMO = -0.680292784478218  LUMO = 0.0514852827314845
   mo_energy = [-0.68029278  0.05148528  0.29525597  1.64945506 23.20035839]
beta-B3u nocc = 1  HOMO = -0.680292784478221  LUMO = 0.0514852827314845
   mo_energy = [-0.68029278  0.05148528  0.29525597  1.64945506 23.20035839]
multiplicity <S^2> = 0.75369331  2S+1 = 2.0036899
E1 = -139.12697147084418  Ecoul = 39.74580601440735
cycle= 7 E= -99.3811654564368  delta_E= -5.81e-08  |g|= 2.92e-05  |ddm|= 0.000292
    CPU time for cycle= 7      0.04 sec, wall time      0.01 sec
diis-norm(errvec)=4.12278e-05
diis-c [-1.52225896e-10 -1.78629573e-05 -3.82356951e-04  3.59595613e-03
 -1.99362106e-02  8.86839455e-02 -2.93460254e-01  1.22151678e+00]
alpha HOMO (B2u) = -0.733314617862243  LUMO (Ag) = 0.0433447590887135
alpha irrep_nelec = [2, 0, 0, 0, 1, 1, 1]
beta  irrep_nelec = [2, 0, 0, 0, 0, 1, 1]
alpha-Ag nocc = 2  HOMO = -1.67938062729612  LUMO = 0.0433447590887135
   mo_energy = [-26.42334289  -1.67938063   0.04334476   0.3258045    0.41811701
   0.42833573   1.50938939   1.55708236   2.26243968   4.86121473
   4.95518305  25.04528034]
alpha-B1g nocc = 0
   mo_energy = [0.42833573 1.55708236 4.95518305]
alpha-B2g nocc = 0
   mo_energy = [0.42017667 1.52128128 4.88378932]
alpha-B3g nocc = 0
   mo_energy = [0.42017667 1.52128128 4.88378932]
alpha-B1u nocc = 1  HOMO = -0.844823749671804  LUMO = 0.0495982828780043
   mo_energy = [-0.84482375  0.04959828  0.27737948  1.5603462  23.10956868]
alpha-B2u nocc = 1  HOMO = -0.733314617862243  LUMO = 0.0513370916299617
   mo_energy = [-0.73331462  0.05133709  0.29177171  1.62612424 23.17948272]
alpha-B3u nocc = 1  HOMO = -0.733314617862244  LUMO = 0.051337091629962
   mo_energy = [-0.73331462  0.05133709  0.29177171  1.62612424 23.17948272]
beta-Ag nocc = 2  HOMO = -1.48487930260775  LUMO = 0.0441669917562195
   mo_energy = [-26.37578942  -1.4848793    0.04416699   0.33703867   0.42325399
   0.42751519   1.55918133   1.57440459   2.3162956    4.97421957
   5.00326789  25.08947497]
beta-B1g nocc = 0
   mo_energy = [0.42751519 1.55918133 4.97421957]
beta-B2g nocc = 0
   mo_energy = [0.42402252 1.57001843 4.9952461 ]
beta-B3g nocc = 0
   mo_energy = [0.42402252 1.57001843 4.9952461 ]
beta-B1u nocc = 0
   mo_energy = [2.31252023e-02 6.67643172e-02 3.45231250e-01 1.75356653e+00
 2.32321935e+01]
beta-B2u nocc = 1  HOMO = -0.680279478838575  LUMO = 0.0514852894077885
   mo_energy = [-0.68027948  0.05148529  0.29525714  1.64946509 23.20038428]
beta-B3u nocc = 1  HOMO = -0.680279478838576  LUMO = 0.0514852894077889
   mo_energy = [-0.68027948  0.05148529  0.29525714  1.64946509 23.20038428]
multiplicity <S^2> = 0.75369532  2S+1 = 2.0036919
E1 = -139.12693034448125  Ecoul = 39.74576488753138
cycle= 8 E= -99.3811654569499  delta_E= -5.13e-10  |g|= 1.62e-06  |ddm|= 2.94e-05
    CPU time for cycle= 8      0.03 sec, wall time      0.01 sec
diis-norm(errvec)=2.29181e-06
diis-c [-1.34007208e-12 -3.59655373e-07  5.79861569e-05 -3.87251816e-04
  2.07330357e-03 -9.63266150e-03  3.74315422e-02 -1.94483736e-01
  1.16494118e+00]
alpha HOMO (B2u) = -0.733314288206839  LUMO (Ag) = 0.0433447817963505
alpha irrep_nelec = [2, 0, 0, 0, 1, 1, 1]
beta  irrep_nelec = [2, 0, 0, 0, 0, 1, 1]
alpha-Ag nocc = 2  HOMO = -1.67937998140931  LUMO = 0.0433447817963505
   mo_energy = [-26.42334246  -1.67937998   0.04334478   0.32580465   0.4181171
   0.42833577   1.50938966   1.55708269   2.26244015   4.86121521
   4.95518346  25.04528081]
alpha-B1g nocc = 0
   mo_energy = [0.42833577 1.55708269 4.95518346]
alpha-B2g nocc = 0
   mo_energy = [0.42017675 1.52128157 4.88378979]
alpha-B3g nocc = 0
   mo_energy = [0.42017675 1.52128157 4.88378979]
alpha-B1u nocc = 1  HOMO = -0.844823192595616  LUMO = 0.0495982925382731
   mo_energy = [-0.84482319  0.04959829  0.27737959  1.56034668 23.10956923]
alpha-B2u nocc = 1  HOMO = -0.733314288206839  LUMO = 0.0513370915882192
   mo_energy = [-0.73331429  0.05133709  0.29177176  1.62612452 23.17948324]
alpha-B3u nocc = 1  HOMO = -0.73331428820684  LUMO = 0.0513370915882188
   mo_energy = [-0.73331429  0.05133709  0.29177176  1.62612452 23.17948324]
beta-Ag nocc = 2  HOMO = -1.48487837854121  LUMO = 0.0441670455278907
   mo_energy = [-26.37578896  -1.48487838   0.04416705   0.33703893   0.42325411
   0.42751534   1.55918153   1.57440487   2.31629617   4.97421994
   5.00326827  25.08947554]
beta-B1g nocc = 0
   mo_energy = [0.42751534 1.55918153 4.97421994]
beta-B2g nocc = 0
   mo_energy = [0.42402265 1.57001869 4.99524648]
beta-B3g nocc = 0
   mo_energy = [0.42402265 1.57001869 4.99524648]
beta-B1u nocc = 0
   mo_energy = [2.31253683e-02 6.67644145e-02 3.45231417e-01 1.75356689e+00
 2.32321939e+01]
beta-B2u nocc = 1  HOMO = -0.680279492756795  LUMO = 0.0514852874864667
   mo_energy = [-0.68027949  0.05148529  0.29525715  1.64946518 23.20038459]
beta-B3u nocc = 1  HOMO = -0.680279492756794  LUMO = 0.0514852874864666
   mo_energy = [-0.68027949  0.05148529  0.29525715  1.64946518 23.20038459]
multiplicity <S^2> = 0.75369526  2S+1 = 2.0036919
E1 = -139.12693158592703  Ecoul = 39.74576612897518
cycle= 9 E= -99.3811654569518  delta_E= -1.98e-12  |g|= 2.14e-07  |ddm|= 1.9e-06
    CPU time for cycle= 9      0.04 sec, wall time      0.01 sec
diis-norm(errvec)=3.02571e-07
diis-c [-8.02359986e-15  1.22799121e+00 -9.82439129e-06  6.25641658e-05
 -2.97603752e-04  1.39142078e-03 -5.43528083e-03  3.04233851e-02
 -2.54125867e-01]
alpha HOMO (B3u) = -0.733314144611882  LUMO (Ag) = 0.0433447820261358
alpha irrep_nelec = [2, 0, 0, 0, 1, 1, 1]
beta  irrep_nelec = [2, 0, 0, 0, 0, 1, 1]
alpha-Ag nocc = 2  HOMO = -1.6793798290399  LUMO = 0.0433447820261358
   mo_energy = [-26.42334225  -1.67937983   0.04334478   0.32580467   0.41811711
   0.42833577   1.50938972   1.55708274   2.26244024   4.86121533
   4.9551836   25.04528099]
alpha-B1g nocc = 0
   mo_energy = [0.42833577 1.55708274 4.9551836 ]
alpha-B2g nocc = 0
   mo_energy = [0.42017675 1.52128162 4.88378991]
alpha-B3g nocc = 0
   mo_energy = [0.42017675 1.52128162 4.88378991]
alpha-B1u nocc = 1  HOMO = -0.844823016458231  LUMO = 0.049598293813876
   mo_energy = [-0.84482302  0.04959829  0.2773796   1.56034678 23.10956942]
alpha-B2u nocc = 1  HOMO = -0.733314144611883  LUMO = 0.0513370914860003
   mo_energy = [-0.73331414  0.05133709  0.29177176  1.6261246  23.17948345]
alpha-B3u nocc = 1  HOMO = -0.733314144611882  LUMO = 0.0513370914860002
   mo_energy = [-0.73331414  0.05133709  0.29177176  1.6261246  23.17948345]
beta-Ag nocc = 2  HOMO = -1.48487826294006  LUMO = 0.0441670535399877
   mo_energy = [-26.37578877  -1.48487826   0.04416705   0.33703897   0.42325413
   0.42751536   1.55918158   1.57440492   2.31629628   4.97422002
   5.00326836  25.08947573]
beta-B1g nocc = 0
   mo_energy = [0.42751536 1.55918158 4.97422002]
beta-B2g nocc = 0
   mo_energy = [0.42402267 1.57001874 4.99524657]
beta-B3g nocc = 0
   mo_energy = [0.42402267 1.57001874 4.99524657]
beta-B1u nocc = 0
   mo_energy = [2.31254040e-02 6.67644365e-02 3.45231451e-01 1.75356698e+00
 2.32321941e+01]
beta-B2u nocc = 1  HOMO = -0.680279497217382  LUMO = 0.0514852874994829
   mo_energy = [-0.6802795   0.05148529  0.29525716  1.64946523 23.20038476]
beta-B3u nocc = 1  HOMO = -0.680279497217383  LUMO = 0.0514852874994828
   mo_energy = [-0.6802795   0.05148529  0.29525716  1.64946523 23.20038476]
multiplicity <S^2> = 0.75369525  2S+1 = 2.0036918
E1 = -139.12693140898637  Ecoul = 39.74576595203446
cycle= 10 E= -99.3811654569519  delta_E= -5.68e-14  |g|= 1.39e-08  |ddm|= 2.25e-07
    CPU time for cycle= 10      0.04 sec, wall time      0.01 sec
diis-norm(errvec)=1.97144e-08
diis-c [-1.54740247e-16 -5.15662634e-02  1.04875408e+00  9.41593634e-07
 -7.33650042e-06  3.70019192e-05 -1.33001572e-04  4.83911938e-04
  2.43066234e-03]
alpha HOMO (B2u) = -0.733314149234478  LUMO (Ag) = 0.0433447816772917
alpha irrep_nelec = [2, 0, 0, 0, 1, 1, 1]
beta  irrep_nelec = [2, 0, 0, 0, 0, 1, 1]
alpha-Ag nocc = 2  HOMO = -1.67937983575722  LUMO = 0.0433447816772917
   mo_energy = [-26.42334227  -1.67937984   0.04334478   0.32580466   0.41811711
   0.42833577   1.50938971   1.55708273   2.26244024   4.86121533
   4.95518359  25.04528098]
alpha-B1g nocc = 0
   mo_energy = [0.42833577 1.55708273 4.95518359]
alpha-B2g nocc = 0
   mo_energy = [0.42017675 1.52128162 4.88378991]
alpha-B3g nocc = 0
   mo_energy = [0.42017675 1.52128162 4.88378991]
alpha-B1u nocc = 1  HOMO = -0.844823017682718  LUMO = 0.049598293844245
   mo_energy = [-0.84482302  0.04959829  0.2773796   1.56034678 23.10956941]
alpha-B2u nocc = 1  HOMO = -0.733314149234478  LUMO = 0.0513370914527479
   mo_energy = [-0.73331415  0.05133709  0.29177176  1.6261246  23.17948344]
alpha-B3u nocc = 1  HOMO = -0.733314149234478  LUMO = 0.0513370914527479
   mo_energy = [-0.73331415  0.05133709  0.29177176  1.6261246  23.17948344]
beta-Ag nocc = 2  HOMO = -1.4848782695843  LUMO = 0.0441670534877905
   mo_energy = [-26.37578878  -1.48487827   0.04416705   0.33703897   0.42325413
   0.42751536   1.55918158   1.57440491   2.31629628   4.97422001
   5.00326836  25.08947572]
beta-B1g nocc = 0
   mo_energy = [0.42751536 1.55918158 4.97422001]
beta-B2g nocc = 0
   mo_energy = [0.42402267 1.57001874 4.99524656]
beta-B3g nocc = 0
   mo_energy = [0.42402267 1.57001874 4.99524656]
beta-B1u nocc = 0
   mo_energy = [2.31254009e-02 6.67644345e-02 3.45231449e-01 1.75356697e+00
 2.32321940e+01]
beta-B2u nocc = 1  HOMO = -0.68027950443107  LUMO = 0.0514852874339392
   mo_energy = [-0.6802795   0.05148529  0.29525716  1.64946522 23.20038474]
beta-B3u nocc = 1  HOMO = -0.680279504431069  LUMO = 0.0514852874339391
   mo_energy = [-0.6802795   0.05148529  0.29525716  1.64946522 23.20038474]
multiplicity <S^2> = 0.75369524  2S+1 = 2.0036918
E1 = -139.12693143272568  Ecoul = 39.74576597577382
cycle= 11 E= -99.3811654569519  delta_E= 4.26e-14  |g|= 1.8e-09  |ddm|= 8.31e-09
    CPU time for cycle= 11      0.04 sec, wall time      0.01 sec
diis-norm(errvec)=2.54428e-09
Linear dependence found in DIIS error vectors.
diis-c [-1.89636254e-17 -2.57017040e-02  5.00487538e-01  5.23741197e-01
 -7.12333394e-07  6.99887812e-06 -3.85032099e-05  1.72090756e-04
  1.33309510e-03]
alpha HOMO (B3u) = -0.733314149316099  LUMO (Ag) = 0.0433447816526608
alpha irrep_nelec = [2, 0, 0, 0, 1, 1, 1]
beta  irrep_nelec = [2, 0, 0, 0, 0, 1, 1]
alpha-Ag nocc = 2  HOMO = -1.67937983609159  LUMO = 0.0433447816526608
   mo_energy = [-26.42334227  -1.67937984   0.04334478   0.32580466   0.41811711
   0.42833577   1.50938971   1.55708273   2.26244024   4.86121533
   4.95518359  25.04528098]
alpha-B1g nocc = 0
   mo_energy = [0.42833577 1.55708273 4.95518359]
alpha-B2g nocc = 0
   mo_energy = [0.42017675 1.52128162 4.88378991]
alpha-B3g nocc = 0
   mo_energy = [0.42017675 1.52128162 4.88378991]
alpha-B1u nocc = 1  HOMO = -0.844823017684434  LUMO = 0.0495982938457952
   mo_energy = [-0.84482302  0.04959829  0.2773796   1.56034678 23.10956941]
alpha-B2u nocc = 1  HOMO = -0.7333141493161  LUMO = 0.0513370914504018
   mo_energy = [-0.73331415  0.05133709  0.29177176  1.6261246  23.17948344]
alpha-B3u nocc = 1  HOMO = -0.733314149316099  LUMO = 0.0513370914504016
   mo_energy = [-0.73331415  0.05133709  0.29177176  1.6261246  23.17948344]
beta-Ag nocc = 2  HOMO = -1.48487826988058  LUMO = 0.044167053485403
   mo_energy = [-26.37578878  -1.48487827   0.04416705   0.33703897   0.42325413
   0.42751536   1.55918158   1.57440491   2.31629628   4.97422001
   5.00326836  25.08947572]
beta-B1g nocc = 0
   mo_energy = [0.42751536 1.55918158 4.97422001]
beta-B2g nocc = 0
   mo_energy = [0.42402267 1.57001874 4.99524656]
beta-B3g nocc = 0
   mo_energy = [0.42402267 1.57001874 4.99524656]
beta-B1u nocc = 0
   mo_energy = [2.31254008e-02 6.67644344e-02 3.45231449e-01 1.75356697e+00
 2.32321940e+01]
beta-B2u nocc = 1  HOMO = -0.680279504770019  LUMO = 0.0514852874314517
   mo_energy = [-0.6802795   0.05148529  0.29525716  1.64946522 23.20038474]
beta-B3u nocc = 1  HOMO = -0.680279504770018  LUMO = 0.0514852874314516
   mo_energy = [-0.6802795   0.05148529  0.29525716  1.64946522 23.20038474]
multiplicity <S^2> = 0.75369524  2S+1 = 2.0036918
E1 = -139.12693143296696  Ecoul = 39.74576597601515
cycle= 12 E= -99.3811654569518  delta_E= 5.68e-14  |g|= 1.12e-09  |ddm|= 7.82e-10
    CPU time for cycle= 12      0.04 sec, wall time      0.01 sec
diis-norm(errvec)=1.57976e-09
Linear dependence found in DIIS error vectors.
diis-c [-6.25915025e-17 -1.38531503e-02  3.30120117e-01  3.41424820e-01
  3.41810188e-01  2.54983256e-06 -2.29516337e-05  1.37507324e-04
  3.80919797e-04]
alpha HOMO (B2u) = -0.733314149388949  LUMO (Ag) = 0.0433447816397583
alpha irrep_nelec = [2, 0, 0, 0, 1, 1, 1]
beta  irrep_nelec = [2, 0, 0, 0, 0, 1, 1]
alpha-Ag nocc = 2  HOMO = -1.6793798362474  LUMO = 0.0433447816397583
   mo_energy = [-26.42334227  -1.67937984   0.04334478   0.32580466   0.41811711
   0.42833577   1.50938971   1.55708273   2.26244024   4.86121533
   4.95518359  25.04528098]
alpha-B1g nocc = 0
   mo_energy = [0.42833577 1.55708273 4.95518359]
alpha-B2g nocc = 0
   mo_energy = [0.42017675 1.52128162 4.88378991]
alpha-B3g nocc = 0
   mo_energy = [0.42017675 1.52128162 4.88378991]
alpha-B1u nocc = 1  HOMO = -0.844823017569694  LUMO = 0.0495982938469858
   mo_energy = [-0.84482302  0.04959829  0.2773796   1.56034678 23.10956941]
alpha-B2u nocc = 1  HOMO = -0.733314149388949  LUMO = 0.0513370914490072
   mo_energy = [-0.73331415  0.05133709  0.29177176  1.6261246  23.17948344]
alpha-B3u nocc = 1  HOMO = -0.73331414938895  LUMO = 0.0513370914490072
   mo_energy = [-0.73331415  0.05133709  0.29177176  1.6261246  23.17948344]
beta-Ag nocc = 2  HOMO = -1.48487827021154  LUMO = 0.044167053483101
   mo_energy = [-26.37578878  -1.48487827   0.04416705   0.33703897   0.42325413
   0.42751536   1.55918158   1.57440491   2.31629628   4.97422001
   5.00326836  25.08947572]
beta-B1g nocc = 0
   mo_energy = [0.42751536 1.55918158 4.97422001]
beta-B2g nocc = 0
   mo_energy = [0.42402267 1.57001874 4.99524656]
beta-B3g nocc = 0
   mo_energy = [0.42402267 1.57001874 4.99524656]
beta-B1u nocc = 0
   mo_energy = [2.31254007e-02 6.67644344e-02 3.45231449e-01 1.75356697e+00
 2.32321940e+01]
beta-B2u nocc = 1  HOMO = -0.680279505035503  LUMO = 0.0514852874296704
   mo_energy = [-0.68027951  0.05148529  0.29525716  1.64946522 23.20038474]
beta-B3u nocc = 1  HOMO = -0.680279505035505  LUMO = 0.0514852874296704
   mo_energy = [-0.68027951  0.05148529  0.29525716  1.64946522 23.20038474]
multiplicity <S^2> = 0.75369524  2S+1 = 2.0036918
E1 = -139.12693143329244  Ecoul = 39.745765976340536
cycle= 13 E= -99.3811654569519  delta_E= -9.95e-14  |g|= 7.89e-10  |ddm|= 4.43e-10
    CPU time for cycle= 13      0.03 sec, wall time      0.01 sec
diis-norm(errvec)=1.11605e-09
Linear dependence found in DIIS error vectors.
diis-c [-4.79735979e-17 -9.21086173e-03  2.46504632e-01  2.53988192e-01
  2.54245552e-01  2.54357649e-01 -1.08108661e-05  1.04042440e-04
  2.16053334e-05]
alpha HOMO (B2u) = -0.733314149793713  LUMO (Ag) = 0.0433447816352786
alpha irrep_nelec = [2, 0, 0, 0, 1, 1, 1]
beta  irrep_nelec = [2, 0, 0, 0, 0, 1, 1]
alpha-Ag nocc = 2  HOMO = -1.67937983678197  LUMO = 0.0433447816352786
   mo_energy = [-26.42334227  -1.67937984   0.04334478   0.32580466   0.41811711
   0.42833577   1.50938971   1.55708273   2.26244024   4.86121533
   4.95518359  25.04528098]
alpha-B1g nocc = 0
   mo_energy = [0.42833577 1.55708273 4.95518359]
alpha-B2g nocc = 0
   mo_energy = [0.42017675 1.52128162 4.88378991]
alpha-B3g nocc = 0
   mo_energy = [0.42017675 1.52128162 4.88378991]
alpha-B1u nocc = 1  HOMO = -0.844823018176501  LUMO = 0.049598293841776
   mo_energy = [-0.84482302  0.04959829  0.2773796   1.56034678 23.10956941]
alpha-B2u nocc = 1  HOMO = -0.733314149793713  LUMO = 0.0513370914490663
   mo_energy = [-0.73331415  0.05133709  0.29177176  1.6261246  23.17948344]
alpha-B3u nocc = 1  HOMO = -0.733314149793714  LUMO = 0.0513370914490663
   mo_energy = [-0.73331415  0.05133709  0.29177176  1.6261246  23.17948344]
beta-Ag nocc = 2  HOMO = -1.48487827012263  LUMO = 0.0441670534770946
   mo_energy = [-26.37578878  -1.48487827   0.04416705   0.33703897   0.42325413
   0.42751536   1.55918158   1.57440491   2.31629628   4.97422001
   5.00326836  25.08947572]
beta-B1g nocc = 0
   mo_energy = [0.42751536 1.55918158 4.97422001]
beta-B2g nocc = 0
   mo_energy = [0.42402267 1.57001874 4.99524656]
beta-B3g nocc = 0
   mo_energy = [0.42402267 1.57001874 4.99524656]
beta-B1u nocc = 0
   mo_energy = [2.31254006e-02 6.67644343e-02 3.45231449e-01 1.75356697e+00
 2.32321940e+01]
beta-B2u nocc = 1  HOMO = -0.680279504856771  LUMO = 0.0514852874320336
   mo_energy = [-0.6802795   0.05148529  0.29525716  1.64946522 23.20038474]
beta-B3u nocc = 1  HOMO = -0.68027950485677  LUMO = 0.0514852874320337
   mo_energy = [-0.6802795   0.05148529  0.29525716  1.64946522 23.20038474]
multiplicity <S^2> = 0.75369524  2S+1 = 2.0036918
E1 = -139.12693143402555  Ecoul = 39.74576597707369
cycle= 14 E= -99.3811654569519  delta_E= 4.26e-14  |g|= 1.11e-09  |ddm|= 1.05e-09
    CPU time for cycle= 14      0.03 sec, wall time      0.01 sec
diis-norm(errvec)=1.56273e-09
Linear dependence found in DIIS error vectors.
diis-c [-9.52196490e-16 -4.36456806e-03  1.97489931e-01  2.01575126e-01
  2.01792093e-01  2.01871176e-01  2.01489132e-01  3.36626997e-05
  1.13447445e-04]
alpha HOMO (B3u) = -0.733314149632128  LUMO (Ag) = 0.0433447816301197
alpha irrep_nelec = [2, 0, 0, 0, 1, 1, 1]
beta  irrep_nelec = [2, 0, 0, 0, 0, 1, 1]
alpha-Ag nocc = 2  HOMO = -1.67937983679005  LUMO = 0.0433447816301197
   mo_energy = [-26.42334227  -1.67937984   0.04334478   0.32580466   0.41811711
   0.42833577   1.50938971   1.55708273   2.26244024   4.86121533
   4.95518359  25.04528098]
alpha-B1g nocc = 0
   mo_energy = [0.42833577 1.55708273 4.95518359]
alpha-B2g nocc = 0
   mo_energy = [0.42017675 1.52128162 4.88378991]
alpha-B3g nocc = 0
   mo_energy = [0.42017675 1.52128162 4.88378991]
alpha-B1u nocc = 1  HOMO = -0.844823018436335  LUMO = 0.0495982938400472
   mo_energy = [-0.84482302  0.04959829  0.2773796   1.56034678 23.10956941]
alpha-B2u nocc = 1  HOMO = -0.733314149632128  LUMO = 0.0513370914501316
   mo_energy = [-0.73331415  0.05133709  0.29177176  1.6261246  23.17948344]
alpha-B3u nocc = 1  HOMO = -0.733314149632128  LUMO = 0.0513370914501316
   mo_energy = [-0.73331415  0.05133709  0.29177176  1.6261246  23.17948344]
beta-Ag nocc = 2  HOMO = -1.48487827046428  LUMO = 0.0441670534780021
   mo_energy = [-26.37578878  -1.48487827   0.04416705   0.33703897   0.42325413
   0.42751536   1.55918158   1.57440491   2.31629628   4.97422001
   5.00326836  25.08947572]
beta-B1g nocc = 0
   mo_energy = [0.42751536 1.55918158 4.97422001]
beta-B2g nocc = 0
   mo_energy = [0.42402267 1.57001874 4.99524656]
beta-B3g nocc = 0
   mo_energy = [0.42402267 1.57001874 4.99524656]
beta-B1u nocc = 0
   mo_energy = [2.31254006e-02 6.67644343e-02 3.45231449e-01 1.75356697e+00
 2.32321940e+01]
beta-B2u nocc = 1  HOMO = -0.680279505288977  LUMO = 0.0514852874309285
   mo_energy = [-0.68027951  0.05148529  0.29525716  1.64946522 23.20038474]
beta-B3u nocc = 1  HOMO = -0.680279505288978  LUMO = 0.0514852874309284
   mo_energy = [-0.68027951  0.05148529  0.29525716  1.64946522 23.20038474]
multiplicity <S^2> = 0.75369524  2S+1 = 2.0036918
E1 = -139.12693143487337  Ecoul = 39.74576597792155
cycle= 15 E= -99.3811654569518  delta_E= 4.26e-14  |g|= 1.04e-09  |ddm|= 6.23e-10
    CPU time for cycle= 15      0.03 sec, wall time      0.01 sec
diis-norm(errvec)=1.47208e-09
Linear dependence found in DIIS error vectors.
diis-c [-9.24624649e-17 -6.91566474e-03  1.64292338e-01  1.68309698e-01
  1.68495093e-01  1.68573871e-01  1.68271400e-01  1.68262724e-01
  7.10540035e-04]
alpha HOMO (B3u) = -0.733314149820462  LUMO (Ag) = 0.0433447816258507
alpha irrep_nelec = [2, 0, 0, 0, 1, 1, 1]
beta  irrep_nelec = [2, 0, 0, 0, 0, 1, 1]
alpha-Ag nocc = 2  HOMO = -1.6793798369361  LUMO = 0.0433447816258507
   mo_energy = [-26.42334227  -1.67937984   0.04334478   0.32580466   0.41811711
   0.42833577   1.50938971   1.55708273   2.26244024   4.86121533
   4.95518359  25.04528098]
alpha-B1g nocc = 0
   mo_energy = [0.42833577 1.55708273 4.95518359]
alpha-B2g nocc = 0
   mo_energy = [0.42017675 1.52128162 4.88378991]
alpha-B3g nocc = 0
   mo_energy = [0.42017675 1.52128162 4.88378991]
alpha-B1u nocc = 1  HOMO = -0.844823018357429  LUMO = 0.0495982938416097
   mo_energy = [-0.84482302  0.04959829  0.2773796   1.56034678 23.10956941]
alpha-B2u nocc = 1  HOMO = -0.733314149820463  LUMO = 0.0513370914486848
   mo_energy = [-0.73331415  0.05133709  0.29177176  1.6261246  23.17948344]
alpha-B3u nocc = 1  HOMO = -0.733314149820462  LUMO = 0.0513370914486849
   mo_energy = [-0.73331415  0.05133709  0.29177176  1.6261246  23.17948344]
beta-Ag nocc = 2  HOMO = -1.48487827060512  LUMO = 0.0441670534749505
   mo_energy = [-26.37578878  -1.48487827   0.04416705   0.33703897   0.42325413
   0.42751536   1.55918158   1.57440491   2.31629628   4.97422001
   5.00326836  25.08947571]
beta-B1g nocc = 0
   mo_energy = [0.42751536 1.55918158 4.97422001]
beta-B2g nocc = 0
   mo_energy = [0.42402267 1.57001874 4.99524656]
beta-B3g nocc = 0
   mo_energy = [0.42402267 1.57001874 4.99524656]
beta-B1u nocc = 0
   mo_energy = [2.31254005e-02 6.67644342e-02 3.45231449e-01 1.75356697e+00
 2.32321940e+01]
beta-B2u nocc = 1  HOMO = -0.680279505373583  LUMO = 0.0514852874299694
   mo_energy = [-0.68027951  0.05148529  0.29525716  1.64946522 23.20038474]
beta-B3u nocc = 1  HOMO = -0.680279505373583  LUMO = 0.0514852874299695
   mo_energy = [-0.68027951  0.05148529  0.29525716  1.64946522 23.20038474]
multiplicity <S^2> = 0.75369524  2S+1 = 2.0036918
E1 = -139.12693143522768  Ecoul = 39.74576597827587
cycle= 16 E= -99.3811654569518  delta_E= 1.42e-14  |g|= 9.61e-10  |ddm|= 3.56e-10
    CPU time for cycle= 16      0.03 sec, wall time      0.01 sec
diis-norm(errvec)=1.35955e-09
Linear dependence found in DIIS error vectors.
diis-c [ 1.08472034e-16 -1.01911443e-03  1.41819232e-01  1.43269803e-01
  1.43314759e-01  1.43321013e-01  1.43137436e-01  1.43095559e-01
  1.43061312e-01]
alpha HOMO (B2u) = -0.733314149709717  LUMO (Ag) = 0.0433447816305548
alpha irrep_nelec = [2, 0, 0, 0, 1, 1, 1]
beta  irrep_nelec = [2, 0, 0, 0, 0, 1, 1]
alpha-Ag nocc = 2  HOMO = -1.6793798367666  LUMO = 0.0433447816305548
   mo_energy = [-26.42334227  -1.67937984   0.04334478   0.32580466   0.41811711
   0.42833577   1.50938971   1.55708273   2.26244024   4.86121533
   4.95518359  25.04528098]
alpha-B1g nocc = 0
   mo_energy = [0.42833577 1.55708273 4.95518359]
alpha-B2g nocc = 0
   mo_energy = [0.42017675 1.52128162 4.88378991]
alpha-B3g nocc = 0
   mo_energy = [0.42017675 1.52128162 4.88378991]
alpha-B1u nocc = 1  HOMO = -0.844823018175123  LUMO = 0.0495982938427167
   mo_energy = [-0.84482302  0.04959829  0.2773796   1.56034678 23.10956941]
alpha-B2u nocc = 1  HOMO = -0.733314149709717  LUMO = 0.0513370914487615
   mo_energy = [-0.73331415  0.05133709  0.29177176  1.6261246  23.17948344]
alpha-B3u nocc = 1  HOMO = -0.733314149709717  LUMO = 0.0513370914487614
   mo_energy = [-0.73331415  0.05133709  0.29177176  1.6261246  23.17948344]
beta-Ag nocc = 2  HOMO = -1.48487827032728  LUMO = 0.0441670534775537
   mo_energy = [-26.37578878  -1.48487827   0.04416705   0.33703897   0.42325413
   0.42751536   1.55918158   1.57440491   2.31629628   4.97422001
   5.00326836  25.08947572]
beta-B1g nocc = 0
   mo_energy = [0.42751536 1.55918158 4.97422001]
beta-B2g nocc = 0
   mo_energy = [0.42402267 1.57001874 4.99524656]
beta-B3g nocc = 0
   mo_energy = [0.42402267 1.57001874 4.99524656]
beta-B1u nocc = 0
   mo_energy = [2.31254006e-02 6.67644343e-02 3.45231449e-01 1.75356697e+00
 2.32321940e+01]
beta-B2u nocc = 1  HOMO = -0.680279505128124  LUMO = 0.0514852874306094
   mo_energy = [-0.68027951  0.05148529  0.29525716  1.64946522 23.20038474]
beta-B3u nocc = 1  HOMO = -0.680279505128129  LUMO = 0.0514852874306095
   mo_energy = [-0.68027951  0.05148529  0.29525716  1.64946522 23.20038474]
multiplicity <S^2> = 0.75369524  2S+1 = 2.0036918
E1 = -139.12693143428655  Ecoul = 39.745765977334685
cycle= 17 E= -99.3811654569519  delta_E= -5.68e-14  |g|= 8.53e-10  |ddm|= 2.83e-10
    CPU time for cycle= 17      0.03 sec, wall time      0.01 sec
diis-norm(errvec)=1.20617e-09
Linear dependence found in DIIS error vectors.
diis-c [-2.89052492e-16  1.25000000e-01  1.25000000e-01  1.25000000e-01
  1.25000000e-01  1.25000000e-01  1.25000000e-01  1.25000000e-01
  1.25000000e-01]
alpha HOMO (B2u) = -0.733314149678238  LUMO (Ag) = 0.043344781629778
alpha irrep_nelec = [2, 0, 0, 0, 1, 1, 1]
beta  irrep_nelec = [2, 0, 0, 0, 0, 1, 1]
alpha-Ag nocc = 2  HOMO = -1.67937983674061  LUMO = 0.043344781629778
   mo_energy = [-26.42334227  -1.67937984   0.04334478   0.32580466   0.41811711
   0.42833577   1.50938971   1.55708273   2.26244024   4.86121533
   4.95518359  25.04528098]
alpha-B1g nocc = 0
   mo_energy = [0.42833577 1.55708273 4.95518359]
alpha-B2g nocc = 0
   mo_energy = [0.42017675 1.52128162 4.88378991]
alpha-B3g nocc = 0
   mo_energy = [0.42017675 1.52128162 4.88378991]
alpha-B1u nocc = 1  HOMO = -0.844823018119127  LUMO = 0.0495982938428488
   mo_energy = [-0.84482302  0.04959829  0.2773796   1.56034678 23.10956941]
alpha-B2u nocc = 1  HOMO = -0.733314149678238  LUMO = 0.051337091448696
   mo_energy = [-0.73331415  0.05133709  0.29177176  1.6261246  23.17948344]
alpha-B3u nocc = 1  HOMO = -0.73331414967824  LUMO = 0.051337091448696
   mo_energy = [-0.73331415  0.05133709  0.29177176  1.6261246  23.17948344]
beta-Ag nocc = 2  HOMO = -1.48487827029152  LUMO = 0.0441670534764953
   mo_energy = [-26.37578878  -1.48487827   0.04416705   0.33703897   0.42325413
   0.42751536   1.55918158   1.57440491   2.31629628   4.97422001
   5.00326836  25.08947572]
beta-B1g nocc = 0
   mo_energy = [0.42751536 1.55918158 4.97422001]
beta-B2g nocc = 0
   mo_energy = [0.42402267 1.57001874 4.99524656]
beta-B3g nocc = 0
   mo_energy = [0.42402267 1.57001874 4.99524656]
beta-B1u nocc = 0
   mo_energy = [2.31254006e-02 6.67644343e-02 3.45231449e-01 1.75356697e+00
 2.32321940e+01]
beta-B2u nocc = 1  HOMO = -0.680279505069234  LUMO = 0.0514852874306759
   mo_energy = [-0.68027951  0.05148529  0.29525716  1.64946522 23.20038474]
beta-B3u nocc = 1  HOMO = -0.680279505069234  LUMO = 0.0514852874306759
   mo_energy = [-0.68027951  0.05148529  0.29525716  1.64946522 23.20038474]
multiplicity <S^2> = 0.75369524  2S+1 = 2.0036918
E1 = -139.12693143392886  Ecoul = 39.745765976977026
cycle= 18 E= -99.3811654569518  delta_E= 2.84e-14  |g|= 8.15e-10  |ddm|= 6.03e-11
    CPU time for cycle= 18      0.03 sec, wall time      0.01 sec
diis-norm(errvec)=1.15202e-09
Linear dependence found in DIIS error vectors.
diis-c [-2.89052492e-16  1.25000000e-01  1.25000000e-01  1.25000000e-01
  1.25000000e-01  1.25000000e-01  1.25000000e-01  1.25000000e-01
  1.25000000e-01]
alpha HOMO (B2u) = -0.733314149319426  LUMO (Ag) = 0.0433447816209126
alpha irrep_nelec = [2, 0, 0, 0, 1, 1, 1]
beta  irrep_nelec = [2, 0, 0, 0, 0, 1, 1]
alpha-Ag nocc = 2  HOMO = -1.6793798364348  LUMO = 0.0433447816209126
   mo_energy = [-26.42334227  -1.67937984   0.04334478   0.32580466   0.41811711
   0.42833577   1.50938971   1.55708273   2.26244024   4.86121533
   4.95518359  25.04528098]
alpha-B1g nocc = 0
   mo_energy = [0.42833577 1.55708273 4.95518359]
alpha-B2g nocc = 0
   mo_energy = [0.42017675 1.52128162 4.88378991]
alpha-B3g nocc = 0
   mo_energy = [0.42017675 1.52128162 4.88378991]
alpha-B1u nocc = 1  HOMO = -0.844823017579754  LUMO = 0.0495982938463157
   mo_energy = [-0.84482302  0.04959829  0.2773796   1.56034678 23.10956941]
alpha-B2u nocc = 1  HOMO = -0.733314149319426  LUMO = 0.0513370914478694
   mo_energy = [-0.73331415  0.05133709  0.29177176  1.6261246  23.17948344]
alpha-B3u nocc = 1  HOMO = -0.733314149319427  LUMO = 0.0513370914478694
   mo_energy = [-0.73331415  0.05133709  0.29177176  1.6261246  23.17948344]
beta-Ag nocc = 2  HOMO = -1.48487827020179  LUMO = 0.0441670534833023
   mo_energy = [-26.37578878  -1.48487827   0.04416705   0.33703897   0.42325413
   0.42751536   1.55918158   1.57440491   2.31629628   4.97422001
   5.00326836  25.08947572]
beta-B1g nocc = 0
   mo_energy = [0.42751536 1.55918158 4.97422001]
beta-B2g nocc = 0
   mo_energy = [0.42402267 1.57001874 4.99524656]
beta-B3g nocc = 0
   mo_energy = [0.42402267 1.57001874 4.99524656]
beta-B1u nocc = 0
   mo_energy = [2.31254007e-02 6.67644344e-02 3.45231449e-01 1.75356697e+00
 2.32321940e+01]
beta-B2u nocc = 1  HOMO = -0.680279505069186  LUMO = 0.0514852874293364
   mo_energy = [-0.68027951  0.05148529  0.29525716  1.64946522 23.20038474]
beta-B3u nocc = 1  HOMO = -0.680279505069187  LUMO = 0.0514852874293365
   mo_energy = [-0.68027951  0.05148529  0.29525716  1.64946522 23.20038474]
multiplicity <S^2> = 0.75369524  2S+1 = 2.0036918
E1 = -139.12693143256655  Ecoul = 39.74576597561469
cycle= 19 E= -99.3811654569519  delta_E= -2.84e-14  |g|= 3.8e-10  |ddm|= 6.5e-10
    CPU time for cycle= 19      0.03 sec, wall time      0.01 sec
diis-norm(errvec)=5.37646e-10
Linear dependence found in DIIS error vectors.
diis-c [-2.89052492e-16  1.25000000e-01  1.25000000e-01  1.25000000e-01
  1.25000000e-01  1.25000000e-01  1.25000000e-01  1.25000000e-01
  1.25000000e-01]
alpha HOMO (B2u) = -0.733314149310118  LUMO (Ag) = 0.0433447816191997
alpha irrep_nelec = [2, 0, 0, 0, 1, 1, 1]
beta  irrep_nelec = [2, 0, 0, 0, 0, 1, 1]
alpha-Ag nocc = 2  HOMO = -1.67937983644148  LUMO = 0.0433447816191997
   mo_energy = [-26.42334227  -1.67937984   0.04334478   0.32580466   0.41811711
   0.42833577   1.50938971   1.55708273   2.26244024   4.86121533
   4.95518359  25.04528098]
alpha-B1g nocc = 0
   mo_energy = [0.42833577 1.55708273 4.95518359]
alpha-B2g nocc = 0
   mo_energy = [0.42017675 1.52128162 4.88378991]
alpha-B3g nocc = 0
   mo_energy = [0.42017675 1.52128162 4.88378991]
alpha-B1u nocc = 1  HOMO = -0.844823017557251  LUMO = 0.0495982938465062
   mo_energy = [-0.84482302  0.04959829  0.2773796   1.56034678 23.10956941]
alpha-B2u nocc = 1  HOMO = -0.733314149310118  LUMO = 0.0513370914477095
   mo_energy = [-0.73331415  0.05133709  0.29177176  1.6261246  23.17948344]
alpha-B3u nocc = 1  HOMO = -0.733314149310121  LUMO = 0.0513370914477096
   mo_energy = [-0.73331415  0.05133709  0.29177176  1.6261246  23.17948344]
beta-Ag nocc = 2  HOMO = -1.4848782702199  LUMO = 0.0441670534835131
   mo_energy = [-26.37578878  -1.48487827   0.04416705   0.33703897   0.42325413
   0.42751536   1.55918158   1.57440491   2.31629628   4.97422001
   5.00326836  25.08947572]
beta-B1g nocc = 0
   mo_energy = [0.42751536 1.55918158 4.97422001]
beta-B2g nocc = 0
   mo_energy = [0.42402267 1.57001874 4.99524656]
beta-B3g nocc = 0
   mo_energy = [0.42402267 1.57001874 4.99524656]
beta-B1u nocc = 0
   mo_energy = [2.31254007e-02 6.67644344e-02 3.45231449e-01 1.75356697e+00
 2.32321940e+01]
beta-B2u nocc = 1  HOMO = -0.680279505090931  LUMO = 0.0514852874291598
   mo_energy = [-0.68027951  0.05148529  0.29525716  1.64946522 23.20038474]
beta-B3u nocc = 1  HOMO = -0.680279505090933  LUMO = 0.0514852874291598
   mo_energy = [-0.68027951  0.05148529  0.29525716  1.64946522 23.20038474]
multiplicity <S^2> = 0.75369524  2S+1 = 2.0036918
E1 = -139.12693143253264  Ecoul = 39.74576597558078
cycle= 20 E= -99.3811654569519  delta_E=    0  |g|= 3.45e-10  |ddm|= 4.85e-11
    CPU time for cycle= 20      0.03 sec, wall time      0.01 sec
diis-norm(errvec)=4.88036e-10
Linear dependence found in DIIS error vectors.
diis-c [-2.89052492e-16  1.25000000e-01  1.25000000e-01  1.25000000e-01
  1.25000000e-01  1.25000000e-01  1.25000000e-01  1.25000000e-01
  1.25000000e-01]
alpha HOMO (B3u) = -0.733314149307447  LUMO (Ag) = 0.043344781618136
alpha irrep_nelec = [2, 0, 0, 0, 1, 1, 1]
beta  irrep_nelec = [2, 0, 0, 0, 0, 1, 1]
alpha-Ag nocc = 2  HOMO = -1.67937983644919  LUMO = 0.043344781618136
   mo_energy = [-26.42334227  -1.67937984   0.04334478   0.32580466   0.41811711
   0.42833577   1.50938971   1.55708273   2.26244024   4.86121533
   4.95518359  25.04528098]
alpha-B1g nocc = 0
   mo_energy = [0.42833577 1.55708273 4.95518359]
alpha-B2g nocc = 0
   mo_energy = [0.42017675 1.52128162 4.88378991]
alpha-B3g nocc = 0
   mo_energy = [0.42017675 1.52128162 4.88378991]
alpha-B1u nocc = 1  HOMO = -0.84482301754815  LUMO = 0.0495982938465866
   mo_energy = [-0.84482302  0.04959829  0.2773796   1.56034678 23.10956941]
alpha-B2u nocc = 1  HOMO = -0.733314149307449  LUMO = 0.051337091447619
   mo_energy = [-0.73331415  0.05133709  0.29177176  1.6261246  23.17948344]
alpha-B3u nocc = 1  HOMO = -0.733314149307447  LUMO = 0.0513370914476189
   mo_energy = [-0.73331415  0.05133709  0.29177176  1.6261246  23.17948344]
beta-Ag nocc = 2  HOMO = -1.48487827023475  LUMO = 0.0441670534835958
   mo_energy = [-26.37578878  -1.48487827   0.04416705   0.33703897   0.42325413
   0.42751536   1.55918158   1.57440491   2.31629628   4.97422001
   5.00326836  25.08947572]
beta-B1g nocc = 0
   mo_energy = [0.42751536 1.55918158 4.97422001]
beta-B2g nocc = 0
   mo_energy = [0.42402267 1.57001874 4.99524656]
beta-B3g nocc = 0
   mo_energy = [0.42402267 1.57001874 4.99524656]
beta-B1u nocc = 0
   mo_energy = [2.31254007e-02 6.67644344e-02 3.45231449e-01 1.75356697e+00
 2.32321940e+01]
beta-B2u nocc = 1  HOMO = -0.680279505106552  LUMO = 0.0514852874290562
   mo_energy = [-0.68027951  0.05148529  0.29525716  1.64946522 23.20038474]
beta-B3u nocc = 1  HOMO = -0.680279505106555  LUMO = 0.0514852874290562
   mo_energy = [-0.68027951  0.05148529  0.29525716  1.64946522 23.20038474]
multiplicity <S^2> = 0.75369524  2S+1 = 2.0036918
E1 = -139.12693143252812  Ecoul = 39.745765975576276
cycle= 21 E= -99.3811654569518  delta_E= 1.42e-14  |g|= 3.25e-10  |ddm|= 2.53e-11
    CPU time for cycle= 21      0.03 sec, wall time      0.01 sec
diis-norm(errvec)=4.59602e-10
Linear dependence found in DIIS error vectors.
diis-c [-2.89052492e-16  1.25000000e-01  1.25000000e-01  1.25000000e-01
  1.25000000e-01  1.25000000e-01  1.25000000e-01  1.25000000e-01
  1.25000000e-01]
alpha HOMO (B3u) = -0.733314149312673  LUMO (Ag) = 0.0433447816173932
alpha irrep_nelec = [2, 0, 0, 0, 1, 1, 1]
beta  irrep_nelec = [2, 0, 0, 0, 0, 1, 1]
alpha-Ag nocc = 2  HOMO = -1.67937983646348  LUMO = 0.0433447816173932
   mo_energy = [-26.42334227  -1.67937984   0.04334478   0.32580466   0.41811711
   0.42833577   1.50938971   1.55708273   2.26244024   4.86121533
   4.95518359  25.04528098]
alpha-B1g nocc = 0
   mo_energy = [0.42833577 1.55708273 4.95518359]
alpha-B2g nocc = 0
   mo_energy = [0.42017675 1.52128162 4.88378991]
alpha-B3g nocc = 0
   mo_energy = [0.42017675 1.52128162 4.88378991]
alpha-B1u nocc = 1  HOMO = -0.844823017554659  LUMO = 0.0495982938465545
   mo_energy = [-0.84482302  0.04959829  0.2773796   1.56034678 23.10956941]
alpha-B2u nocc = 1  HOMO = -0.733314149312677  LUMO = 0.0513370914475607
   mo_energy = [-0.73331415  0.05133709  0.29177176  1.6261246  23.17948344]
alpha-B3u nocc = 1  HOMO = -0.733314149312673  LUMO = 0.0513370914475605
   mo_energy = [-0.73331415  0.05133709  0.29177176  1.6261246  23.17948344]
beta-Ag nocc = 2  HOMO = -1.48487827024354  LUMO = 0.0441670534836
   mo_energy = [-26.37578878  -1.48487827   0.04416705   0.33703897   0.42325413
   0.42751536   1.55918158   1.57440491   2.31629628   4.97422001
   5.00326836  25.08947572]
beta-B1g nocc = 0
   mo_energy = [0.42751536 1.55918158 4.97422001]
beta-B2g nocc = 0
   mo_energy = [0.42402267 1.57001874 4.99524656]
beta-B3g nocc = 0
   mo_energy = [0.42402267 1.57001874 4.99524656]
beta-B1u nocc = 0
   mo_energy = [2.31254007e-02 6.67644344e-02 3.45231449e-01 1.75356697e+00
 2.32321940e+01]
beta-B2u nocc = 1  HOMO = -0.680279505116509  LUMO = 0.0514852874290205
   mo_energy = [-0.68027951  0.05148529  0.29525716  1.64946522 23.20038474]
beta-B3u nocc = 1  HOMO = -0.68027950511651  LUMO = 0.0514852874290203
   mo_energy = [-0.68027951  0.05148529  0.29525716  1.64946522 23.20038474]
multiplicity <S^2> = 0.75369524  2S+1 = 2.0036918
E1 = -139.12693143254924  Ecoul = 39.745765975597365
cycle= 22 E= -99.3811654569519  delta_E= -2.84e-14  |g|= 3.2e-10  |ddm|= 3.2e-11
    CPU time for cycle= 22      0.03 sec, wall time      0.01 sec
diis-norm(errvec)=4.52841e-10
Linear dependence found in DIIS error vectors.
diis-c [-2.89052492e-16  1.25000000e-01  1.25000000e-01  1.25000000e-01
  1.25000000e-01  1.25000000e-01  1.25000000e-01  1.25000000e-01
  1.25000000e-01]
alpha HOMO (B3u) = -0.73331414930744  LUMO (Ag) = 0.043344781616502
alpha irrep_nelec = [2, 0, 0, 0, 1, 1, 1]
beta  irrep_nelec = [2, 0, 0, 0, 0, 1, 1]
alpha-Ag nocc = 2  HOMO = -1.67937983646473  LUMO = 0.043344781616502
   mo_energy = [-26.42334227  -1.67937984   0.04334478   0.32580466   0.41811711
   0.42833577   1.50938971   1.55708273   2.26244024   4.86121533
   4.95518359  25.04528098]
alpha-B1g nocc = 0
   mo_energy = [0.42833577 1.55708273 4.95518359]
alpha-B2g nocc = 0
   mo_energy = [0.42017675 1.52128162 4.88378991]
alpha-B3g nocc = 0
   mo_energy = [0.42017675 1.52128162 4.88378991]
alpha-B1u nocc = 1  HOMO = -0.844823017543234  LUMO = 0.0495982938467536
   mo_energy = [-0.84482302  0.04959829  0.2773796   1.56034678 23.10956941]
alpha-B2u nocc = 1  HOMO = -0.733314149307442  LUMO = 0.0513370914474718
   mo_energy = [-0.73331415  0.05133709  0.29177176  1.6261246  23.17948344]
alpha-B3u nocc = 1  HOMO = -0.73331414930744  LUMO = 0.0513370914474716
   mo_energy = [-0.73331415  0.05133709  0.29177176  1.6261246  23.17948344]
beta-Ag nocc = 2  HOMO = -1.48487827027914  LUMO = 0.0441670534838524
   mo_energy = [-26.37578878  -1.48487827   0.04416705   0.33703897   0.42325413
   0.42751536   1.55918158   1.57440491   2.31629628   4.97422001
   5.00326836  25.08947572]
beta-B1g nocc = 0
   mo_energy = [0.42751536 1.55918158 4.97422001]
beta-B2g nocc = 0
   mo_energy = [0.42402267 1.57001874 4.99524656]
beta-B3g nocc = 0
   mo_energy = [0.42402267 1.57001874 4.99524656]
beta-B1u nocc = 0
   mo_energy = [2.31254007e-02 6.67644344e-02 3.45231449e-01 1.75356697e+00
 2.32321940e+01]
beta-B2u nocc = 1  HOMO = -0.680279505158143  LUMO = 0.051485287428794
   mo_energy = [-0.68027951  0.05148529  0.29525716  1.64946522 23.20038474]
beta-B3u nocc = 1  HOMO = -0.68027950515814  LUMO = 0.0514852874287938
[...]
E1 = -139.12693143288237  Ecoul = 39.745765975930524
cycle= 93 E= -99.3811654569518  delta_E= -1.42e-14  |g|= 5.86e-14  |ddm|= 1.38e-14
    CPU time for cycle= 93      0.03 sec, wall time      0.01 sec
diis-norm(errvec)=7.21636e-14
Linear dependence found in DIIS error vectors.
diis-c [-2.89052492e-16  1.25000000e-01  1.25000000e-01  1.25000000e-01
  1.25000000e-01  1.25000000e-01  1.25000000e-01  1.25000000e-01
  1.25000000e-01]
alpha HOMO (B3u) = -0.733314149268678  LUMO (Ag) = 0.0433447816120652
alpha irrep_nelec = [2, 0, 0, 0, 1, 1, 1]
beta  irrep_nelec = [2, 0, 0, 0, 0, 1, 1]
alpha-Ag nocc = 2  HOMO = -1.67937983644048  LUMO = 0.0433447816120652
   mo_energy = [-26.42334227  -1.67937984   0.04334478   0.32580466   0.41811711
   0.42833577   1.50938971   1.55708273   2.26244024   4.86121533
   4.95518359  25.04528098]
alpha-B1g nocc = 0
   mo_energy = [0.42833577 1.55708273 4.95518359]
alpha-B2g nocc = 0
   mo_energy = [0.42017675 1.52128162 4.88378991]
alpha-B3g nocc = 0
   mo_energy = [0.42017675 1.52128162 4.88378991]
alpha-B1u nocc = 1  HOMO = -0.844823017415602  LUMO = 0.0495982938483301
   mo_energy = [-0.84482302  0.04959829  0.2773796   1.56034678 23.10956941]
alpha-B2u nocc = 1  HOMO = -0.733314149268679  LUMO = 0.0513370914468717
   mo_energy = [-0.73331415  0.05133709  0.29177176  1.6261246  23.17948344]
alpha-B3u nocc = 1  HOMO = -0.733314149268678  LUMO = 0.0513370914468713
   mo_energy = [-0.73331415  0.05133709  0.29177176  1.6261246  23.17948344]
beta-Ag nocc = 2  HOMO = -1.48487827044911  LUMO = 0.0441670534859006
   mo_energy = [-26.37578878  -1.48487827   0.04416705   0.33703897   0.42325413
   0.42751536   1.55918158   1.57440491   2.31629628   4.97422001
   5.00326836  25.08947572]
beta-B1g nocc = 0
   mo_energy = [0.42751536 1.55918158 4.97422001]
beta-B2g nocc = 0
   mo_energy = [0.42402267 1.57001874 4.99524656]
beta-B3g nocc = 0
   mo_energy = [0.42402267 1.57001874 4.99524656]
beta-B1u nocc = 0
   mo_energy = [2.31254007e-02 6.67644343e-02 3.45231449e-01 1.75356697e+00
 2.32321940e+01]
beta-B2u nocc = 1  HOMO = -0.680279505360203  LUMO = 0.0514852874275128
   mo_energy = [-0.68027951  0.05148529  0.29525716  1.64946522 23.20038474]
beta-B3u nocc = 1  HOMO = -0.680279505360203  LUMO = 0.0514852874275126
   mo_energy = [-0.68027951  0.05148529  0.29525716  1.64946522 23.20038474]
multiplicity <S^2> = 0.75369524  2S+1 = 2.0036918
E1 = -139.12693143288232  Ecoul = 39.74576597593051
cycle= 94 E= -99.3811654569518  delta_E= 4.26e-14  |g|= 5.02e-14  |ddm|= 9.21e-15
    CPU time for cycle= 94      0.04 sec, wall time      0.01 sec
diis-norm(errvec)=6.74465e-14
Linear dependence found in DIIS error vectors.
diis-c [-2.89052492e-16  1.25000000e-01  1.25000000e-01  1.25000000e-01
  1.25000000e-01  1.25000000e-01  1.25000000e-01  1.25000000e-01
  1.25000000e-01]
alpha HOMO (B3u) = -0.733314149268676  LUMO (Ag) = 0.0433447816120654
alpha irrep_nelec = [2, 0, 0, 0, 1, 1, 1]
beta  irrep_nelec = [2, 0, 0, 0, 0, 1, 1]
alpha-Ag nocc = 2  HOMO = -1.67937983644048  LUMO = 0.0433447816120654
   mo_energy = [-26.42334227  -1.67937984   0.04334478   0.32580466   0.41811711
   0.42833577   1.50938971   1.55708273   2.26244024   4.86121533
   4.95518359  25.04528098]
alpha-B1g nocc = 0
   mo_energy = [0.42833577 1.55708273 4.95518359]
alpha-B2g nocc = 0
   mo_energy = [0.42017675 1.52128162 4.88378991]
alpha-B3g nocc = 0
   mo_energy = [0.42017675 1.52128162 4.88378991]
alpha-B1u nocc = 1  HOMO = -0.844823017415601  LUMO = 0.0495982938483302
   mo_energy = [-0.84482302  0.04959829  0.2773796   1.56034678 23.10956941]
alpha-B2u nocc = 1  HOMO = -0.733314149268676  LUMO = 0.0513370914468716
   mo_energy = [-0.73331415  0.05133709  0.29177176  1.6261246  23.17948344]
alpha-B3u nocc = 1  HOMO = -0.733314149268676  LUMO = 0.0513370914468714
   mo_energy = [-0.73331415  0.05133709  0.29177176  1.6261246  23.17948344]
beta-Ag nocc = 2  HOMO = -1.48487827044911  LUMO = 0.0441670534858999
   mo_energy = [-26.37578878  -1.48487827   0.04416705   0.33703897   0.42325413
   0.42751536   1.55918158   1.57440491   2.31629628   4.97422001
   5.00326836  25.08947572]
beta-B1g nocc = 0
   mo_energy = [0.42751536 1.55918158 4.97422001]
beta-B2g nocc = 0
   mo_energy = [0.42402267 1.57001874 4.99524656]
beta-B3g nocc = 0
   mo_energy = [0.42402267 1.57001874 4.99524656]
beta-B1u nocc = 0
   mo_energy = [2.31254007e-02 6.67644343e-02 3.45231449e-01 1.75356697e+00
 2.32321940e+01]
beta-B2u nocc = 1  HOMO = -0.680279505360207  LUMO = 0.0514852874275128
   mo_energy = [-0.68027951  0.05148529  0.29525716  1.64946522 23.20038474]
beta-B3u nocc = 1  HOMO = -0.68027950536021  LUMO = 0.0514852874275125
   mo_energy = [-0.68027951  0.05148529  0.29525716  1.64946522 23.20038474]
multiplicity <S^2> = 0.75369524  2S+1 = 2.0036918
E1 = -139.12693143288234  Ecoul = 39.745765975930496
cycle= 95 E= -99.3811654569518  delta_E= -4.26e-14  |g|= 4.2e-14  |ddm|= 1.44e-14
    CPU time for cycle= 95      0.03 sec, wall time      0.01 sec
diis-norm(errvec)=6.06727e-14
Linear dependence found in DIIS error vectors.
diis-c [-2.89052492e-16  1.25000000e-01  1.25000000e-01  1.25000000e-01
  1.25000000e-01  1.25000000e-01  1.25000000e-01  1.25000000e-01
  1.25000000e-01]
alpha HOMO (B3u) = -0.733314149268674  LUMO (Ag) = 0.043344781612065
alpha irrep_nelec = [2, 0, 0, 0, 1, 1, 1]
beta  irrep_nelec = [2, 0, 0, 0, 0, 1, 1]
alpha-Ag nocc = 2  HOMO = -1.67937983644048  LUMO = 0.043344781612065
   mo_energy = [-26.42334227  -1.67937984   0.04334478   0.32580466   0.41811711
   0.42833577   1.50938971   1.55708273   2.26244024   4.86121533
   4.95518359  25.04528098]
alpha-B1g nocc = 0
   mo_energy = [0.42833577 1.55708273 4.95518359]
alpha-B2g nocc = 0
   mo_energy = [0.42017675 1.52128162 4.88378991]
alpha-B3g nocc = 0
   mo_energy = [0.42017675 1.52128162 4.88378991]
alpha-B1u nocc = 1  HOMO = -0.8448230174156  LUMO = 0.04959829384833
   mo_energy = [-0.84482302  0.04959829  0.2773796   1.56034678 23.10956941]
alpha-B2u nocc = 1  HOMO = -0.733314149268674  LUMO = 0.0513370914468716
   mo_energy = [-0.73331415  0.05133709  0.29177176  1.6261246  23.17948344]
alpha-B3u nocc = 1  HOMO = -0.733314149268674  LUMO = 0.0513370914468713
   mo_energy = [-0.73331415  0.05133709  0.29177176  1.6261246  23.17948344]
beta-Ag nocc = 2  HOMO = -1.48487827044912  LUMO = 0.0441670534859002
   mo_energy = [-26.37578878  -1.48487827   0.04416705   0.33703897   0.42325413
   0.42751536   1.55918158   1.57440491   2.31629628   4.97422001
   5.00326836  25.08947572]
beta-B1g nocc = 0
   mo_energy = [0.42751536 1.55918158 4.97422001]
beta-B2g nocc = 0
   mo_energy = [0.42402267 1.57001874 4.99524656]
beta-B3g nocc = 0
   mo_energy = [0.42402267 1.57001874 4.99524656]
beta-B1u nocc = 0
   mo_energy = [2.31254007e-02 6.67644343e-02 3.45231449e-01 1.75356697e+00
 2.32321940e+01]
beta-B2u nocc = 1  HOMO = -0.680279505360212  LUMO = 0.0514852874275128
   mo_energy = [-0.68027951  0.05148529  0.29525716  1.64946522 23.20038474]
beta-B3u nocc = 1  HOMO = -0.680279505360212  LUMO = 0.0514852874275125
   mo_energy = [-0.68027951  0.05148529  0.29525716  1.64946522 23.20038474]
multiplicity <S^2> = 0.75369524  2S+1 = 2.0036918
E1 = -139.12693143288237  Ecoul = 39.74576597593054
cycle= 96 E= -99.3811654569518  delta_E= 1.42e-14  |g|= 4.52e-14  |ddm|= 1.24e-14
    CPU time for cycle= 96      0.03 sec, wall time      0.01 sec
diis-norm(errvec)=7.06234e-14
Linear dependence found in DIIS error vectors.
diis-c [-2.89052492e-16  1.25000000e-01  1.25000000e-01  1.25000000e-01
  1.25000000e-01  1.25000000e-01  1.25000000e-01  1.25000000e-01
  1.25000000e-01]
alpha HOMO (B3u) = -0.733314149268673  LUMO (Ag) = 0.0433447816120648
alpha irrep_nelec = [2, 0, 0, 0, 1, 1, 1]
beta  irrep_nelec = [2, 0, 0, 0, 0, 1, 1]
alpha-Ag nocc = 2  HOMO = -1.67937983644048  LUMO = 0.0433447816120648
   mo_energy = [-26.42334227  -1.67937984   0.04334478   0.32580466   0.41811711
   0.42833577   1.50938971   1.55708273   2.26244024   4.86121533
   4.95518359  25.04528098]
alpha-B1g nocc = 0
   mo_energy = [0.42833577 1.55708273 4.95518359]
alpha-B2g nocc = 0
   mo_energy = [0.42017675 1.52128162 4.88378991]
alpha-B3g nocc = 0
   mo_energy = [0.42017675 1.52128162 4.88378991]
alpha-B1u nocc = 1  HOMO = -0.844823017415597  LUMO = 0.0495982938483301
   mo_energy = [-0.84482302  0.04959829  0.2773796   1.56034678 23.10956941]
alpha-B2u nocc = 1  HOMO = -0.733314149268673  LUMO = 0.0513370914468716
   mo_energy = [-0.73331415  0.05133709  0.29177176  1.6261246  23.17948344]
alpha-B3u nocc = 1  HOMO = -0.733314149268673  LUMO = 0.0513370914468714
   mo_energy = [-0.73331415  0.05133709  0.29177176  1.6261246  23.17948344]
beta-Ag nocc = 2  HOMO = -1.48487827044911  LUMO = 0.0441670534859003
   mo_energy = [-26.37578878  -1.48487827   0.04416705   0.33703897   0.42325413
   0.42751536   1.55918158   1.57440491   2.31629628   4.97422001
   5.00326836  25.08947572]
beta-B1g nocc = 0
   mo_energy = [0.42751536 1.55918158 4.97422001]
beta-B2g nocc = 0
   mo_energy = [0.42402267 1.57001874 4.99524656]
beta-B3g nocc = 0
   mo_energy = [0.42402267 1.57001874 4.99524656]
beta-B1u nocc = 0
   mo_energy = [2.31254007e-02 6.67644343e-02 3.45231449e-01 1.75356697e+00
 2.32321940e+01]
beta-B2u nocc = 1  HOMO = -0.680279505360213  LUMO = 0.0514852874275128
   mo_energy = [-0.68027951  0.05148529  0.29525716  1.64946522 23.20038474]
beta-B3u nocc = 1  HOMO = -0.680279505360213  LUMO = 0.0514852874275125
   mo_energy = [-0.68027951  0.05148529  0.29525716  1.64946522 23.20038474]
multiplicity <S^2> = 0.75369524  2S+1 = 2.0036918
E1 = -139.12693143288234  Ecoul = 39.74576597593048
cycle= 97 E= -99.3811654569519  delta_E= -2.84e-14  |g|= 6.61e-14  |ddm|= 1.55e-14
    CPU time for cycle= 97      0.03 sec, wall time      0.01 sec
diis-norm(errvec)=7.10441e-14
Linear dependence found in DIIS error vectors.
diis-c [-2.89052492e-16  1.25000000e-01  1.25000000e-01  1.25000000e-01
  1.25000000e-01  1.25000000e-01  1.25000000e-01  1.25000000e-01
  1.25000000e-01]
alpha HOMO (B3u) = -0.73331414926867  LUMO (Ag) = 0.0433447816120655
alpha irrep_nelec = [2, 0, 0, 0, 1, 1, 1]
beta  irrep_nelec = [2, 0, 0, 0, 0, 1, 1]
alpha-Ag nocc = 2  HOMO = -1.67937983644048  LUMO = 0.0433447816120655
   mo_energy = [-26.42334227  -1.67937984   0.04334478   0.32580466   0.41811711
   0.42833577   1.50938971   1.55708273   2.26244024   4.86121533
   4.95518359  25.04528098]
alpha-B1g nocc = 0
   mo_energy = [0.42833577 1.55708273 4.95518359]
alpha-B2g nocc = 0
   mo_energy = [0.42017675 1.52128162 4.88378991]
alpha-B3g nocc = 0
   mo_energy = [0.42017675 1.52128162 4.88378991]
alpha-B1u nocc = 1  HOMO = -0.844823017415594  LUMO = 0.0495982938483302
   mo_energy = [-0.84482302  0.04959829  0.2773796   1.56034678 23.10956941]
alpha-B2u nocc = 1  HOMO = -0.733314149268671  LUMO = 0.0513370914468716
   mo_energy = [-0.73331415  0.05133709  0.29177176  1.6261246  23.17948344]
alpha-B3u nocc = 1  HOMO = -0.73331414926867  LUMO = 0.0513370914468714
   mo_energy = [-0.73331415  0.05133709  0.29177176  1.6261246  23.17948344]
beta-Ag nocc = 2  HOMO = -1.48487827044911  LUMO = 0.0441670534858997
   mo_energy = [-26.37578878  -1.48487827   0.04416705   0.33703897   0.42325413
   0.42751536   1.55918158   1.57440491   2.31629628   4.97422001
   5.00326836  25.08947572]
beta-B1g nocc = 0
   mo_energy = [0.42751536 1.55918158 4.97422001]
beta-B2g nocc = 0
   mo_energy = [0.42402267 1.57001874 4.99524656]
beta-B3g nocc = 0
   mo_energy = [0.42402267 1.57001874 4.99524656]
beta-B1u nocc = 0
   mo_energy = [2.31254007e-02 6.67644343e-02 3.45231449e-01 1.75356697e+00
 2.32321940e+01]
beta-B2u nocc = 1  HOMO = -0.680279505360214  LUMO = 0.0514852874275128
   mo_energy = [-0.68027951  0.05148529  0.29525716  1.64946522 23.20038474]
beta-B3u nocc = 1  HOMO = -0.680279505360215  LUMO = 0.0514852874275126
   mo_energy = [-0.68027951  0.05148529  0.29525716  1.64946522 23.20038474]
multiplicity <S^2> = 0.75369524  2S+1 = 2.0036918
E1 = -139.12693143288232  Ecoul = 39.745765975930496
cycle= 98 E= -99.3811654569518  delta_E= 4.26e-14  |g|= 3.35e-14  |ddm|= 5.66e-15
    CPU time for cycle= 98      0.03 sec, wall time      0.01 sec
diis-norm(errvec)=4.86675e-14
Linear dependence found in DIIS error vectors.
diis-c [-2.89052492e-16  1.25000000e-01  1.25000000e-01  1.25000000e-01
  1.25000000e-01  1.25000000e-01  1.25000000e-01  1.25000000e-01
  1.25000000e-01]
alpha HOMO (B2u) = -0.733314149268668  LUMO (Ag) = 0.0433447816120653
alpha irrep_nelec = [2, 0, 0, 0, 1, 1, 1]
beta  irrep_nelec = [2, 0, 0, 0, 0, 1, 1]
alpha-Ag nocc = 2  HOMO = -1.67937983644047  LUMO = 0.0433447816120653
   mo_energy = [-26.42334227  -1.67937984   0.04334478   0.32580466   0.41811711
   0.42833577   1.50938971   1.55708273   2.26244024   4.86121533
   4.95518359  25.04528098]
alpha-B1g nocc = 0
   mo_energy = [0.42833577 1.55708273 4.95518359]
alpha-B2g nocc = 0
   mo_energy = [0.42017675 1.52128162 4.88378991]
alpha-B3g nocc = 0
   mo_energy = [0.42017675 1.52128162 4.88378991]
alpha-B1u nocc = 1  HOMO = -0.844823017415594  LUMO = 0.0495982938483302
   mo_energy = [-0.84482302  0.04959829  0.2773796   1.56034678 23.10956941]
alpha-B2u nocc = 1  HOMO = -0.733314149268668  LUMO = 0.0513370914468718
   mo_energy = [-0.73331415  0.05133709  0.29177176  1.6261246  23.17948344]
alpha-B3u nocc = 1  HOMO = -0.733314149268669  LUMO = 0.0513370914468714
   mo_energy = [-0.73331415  0.05133709  0.29177176  1.6261246  23.17948344]
beta-Ag nocc = 2  HOMO = -1.48487827044911  LUMO = 0.0441670534859001
   mo_energy = [-26.37578878  -1.48487827   0.04416705   0.33703897   0.42325413
   0.42751536   1.55918158   1.57440491   2.31629628   4.97422001
   5.00326836  25.08947572]
beta-B1g nocc = 0
   mo_energy = [0.42751536 1.55918158 4.97422001]
beta-B2g nocc = 0
   mo_energy = [0.42402267 1.57001874 4.99524656]
beta-B3g nocc = 0
   mo_energy = [0.42402267 1.57001874 4.99524656]
beta-B1u nocc = 0
   mo_energy = [2.31254007e-02 6.67644343e-02 3.45231449e-01 1.75356697e+00
 2.32321940e+01]
beta-B2u nocc = 1  HOMO = -0.680279505360215  LUMO = 0.051485287427513
   mo_energy = [-0.68027951  0.05148529  0.29525716  1.64946522 23.20038474]
beta-B3u nocc = 1  HOMO = -0.680279505360216  LUMO = 0.0514852874275126
   mo_energy = [-0.68027951  0.05148529  0.29525716  1.64946522 23.20038474]
multiplicity <S^2> = 0.75369524  2S+1 = 2.0036918
E1 = -139.12693143288232  Ecoul = 39.74576597593049
cycle= 99 E= -99.3811654569518  delta_E= -1.42e-14  |g|= 4.71e-14  |ddm|= 6.66e-15
    CPU time for cycle= 99      0.03 sec, wall time      0.01 sec
diis-norm(errvec)=4.60651e-14
Linear dependence found in DIIS error vectors.
diis-c [-2.89052492e-16  1.25000000e-01  1.25000000e-01  1.25000000e-01
  1.25000000e-01  1.25000000e-01  1.25000000e-01  1.25000000e-01
  1.25000000e-01]
alpha HOMO (B2u) = -0.733314149268665  LUMO (Ag) = 0.0433447816120658
alpha irrep_nelec = [2, 0, 0, 0, 1, 1, 1]
beta  irrep_nelec = [2, 0, 0, 0, 0, 1, 1]
alpha-Ag nocc = 2  HOMO = -1.67937983644047  LUMO = 0.0433447816120658
   mo_energy = [-26.42334227  -1.67937984   0.04334478   0.32580466   0.41811711
   0.42833577   1.50938971   1.55708273   2.26244024   4.86121533
   4.95518359  25.04528098]
alpha-B1g nocc = 0
   mo_energy = [0.42833577 1.55708273 4.95518359]
alpha-B2g nocc = 0
   mo_energy = [0.42017675 1.52128162 4.88378991]
alpha-B3g nocc = 0
   mo_energy = [0.42017675 1.52128162 4.88378991]
alpha-B1u nocc = 1  HOMO = -0.844823017415591  LUMO = 0.0495982938483304
   mo_energy = [-0.84482302  0.04959829  0.2773796   1.56034678 23.10956941]
alpha-B2u nocc = 1  HOMO = -0.733314149268665  LUMO = 0.0513370914468718
   mo_energy = [-0.73331415  0.05133709  0.29177176  1.6261246  23.17948344]
alpha-B3u nocc = 1  HOMO = -0.733314149268667  LUMO = 0.0513370914468714
   mo_energy = [-0.73331415  0.05133709  0.29177176  1.6261246  23.17948344]
beta-Ag nocc = 2  HOMO = -1.48487827044912  LUMO = 0.0441670534859009
   mo_energy = [-26.37578878  -1.48487827   0.04416705   0.33703897   0.42325413
   0.42751536   1.55918158   1.57440491   2.31629628   4.97422001
   5.00326836  25.08947572]
beta-B1g nocc = 0
   mo_energy = [0.42751536 1.55918158 4.97422001]
beta-B2g nocc = 0
   mo_energy = [0.42402267 1.57001874 4.99524656]
beta-B3g nocc = 0
   mo_energy = [0.42402267 1.57001874 4.99524656]
beta-B1u nocc = 0
   mo_energy = [2.31254007e-02 6.67644343e-02 3.45231449e-01 1.75356697e+00
 2.32321940e+01]
beta-B2u nocc = 1  HOMO = -0.680279505360218  LUMO = 0.051485287427513
   mo_energy = [-0.68027951  0.05148529  0.29525716  1.64946522 23.20038474]
beta-B3u nocc = 1  HOMO = -0.680279505360217  LUMO = 0.0514852874275126
   mo_energy = [-0.68027951  0.05148529  0.29525716  1.64946522 23.20038474]
multiplicity <S^2> = 0.75369524  2S+1 = 2.0036918
E1 = -139.12693143288232  Ecoul = 39.74576597593049
cycle= 100 E= -99.3811654569518  delta_E=    0  |g|= 6.43e-14  |ddm|= 6.53e-15
    CPU time for cycle= 100      0.03 sec, wall time      0.01 sec
alpha HOMO (B3u) = -0.733314149268661  LUMO (Ag) = 0.0433447816120657
alpha irrep_nelec = [2, 0, 0, 0, 1, 1, 1]
beta  irrep_nelec = [2, 0, 0, 0, 0, 1, 1]
alpha-Ag nocc = 2  HOMO = -1.67937983644047  LUMO = 0.0433447816120657
   mo_energy = [-26.42334227  -1.67937984   0.04334478   0.32580466   0.41811711
   0.42833577   1.50938971   1.55708273   2.26244024   4.86121533
   4.95518359  25.04528098]
alpha-B1g nocc = 0
   mo_energy = [0.42833577 1.55708273 4.95518359]
alpha-B2g nocc = 0
   mo_energy = [0.42017675 1.52128162 4.88378991]
alpha-B3g nocc = 0
   mo_energy = [0.42017675 1.52128162 4.88378991]
alpha-B1u nocc = 1  HOMO = -0.84482301741559  LUMO = 0.0495982938483306
   mo_energy = [-0.84482302  0.04959829  0.2773796   1.56034678 23.10956941]
alpha-B2u nocc = 1  HOMO = -0.733314149268661  LUMO = 0.0513370914468715
   mo_energy = [-0.73331415  0.05133709  0.29177176  1.6261246  23.17948344]
alpha-B3u nocc = 1  HOMO = -0.733314149268661  LUMO = 0.0513370914468719
   mo_energy = [-0.73331415  0.05133709  0.29177176  1.6261246  23.17948344]
beta-Ag nocc = 2  HOMO = -1.48487827044912  LUMO = 0.0441670534858998
   mo_energy = [-26.37578878  -1.48487827   0.04416705   0.33703897   0.42325413
   0.42751536   1.55918158   1.57440491   2.31629628   4.97422001
   5.00326836  25.08947572]
beta-B1g nocc = 0
   mo_energy = [0.42751536 1.55918158 4.97422001]
beta-B2g nocc = 0
   mo_energy = [0.42402267 1.57001874 4.99524656]
beta-B3g nocc = 0
   mo_energy = [0.42402267 1.57001874 4.99524656]
beta-B1u nocc = 0
   mo_energy = [2.31254007e-02 6.67644343e-02 3.45231449e-01 1.75356697e+00
 2.32321940e+01]
beta-B2u nocc = 1  HOMO = -0.680279505360222  LUMO = 0.0514852874275125
   mo_energy = [-0.68027951  0.05148529  0.29525716  1.64946522 23.20038474]
beta-B3u nocc = 1  HOMO = -0.680279505360221  LUMO = 0.051485287427513
   mo_energy = [-0.68027951  0.05148529  0.29525716  1.64946522 23.20038474]
multiplicity <S^2> = 0.75369524  2S+1 = 2.0036918
E1 = -139.12693143288232  Ecoul = 39.74576597593048
Extra cycle  E= -99.3811654569518  delta_E=    0  |g|= 1.74e-14  |ddm|= 6.53e-15
    CPU time for scf_cycle      3.79 sec, wall time      0.99 sec
    CPU time for SCF      3.79 sec, wall time      0.99 sec
converged SCF energy = -99.3811654569518  <S^2> = 0.75369524  2S+1 = 2.0036918
irreps of each MO ['Ag' 'Ag' 'B1u' 'B2u' 'B3u' 'Ag' 'B1u' 'B2u' 'B3u' 'B1u' 'B2u' 'B3u' 'Ag'
 'Ag' 'B2g' 'B3g' 'Ag' 'B1g' 'Ag' 'B2g' 'B3g' 'Ag' 'B1g' 'B1u' 'B2u' 'B3u'
 'Ag' 'Ag' 'B2g' 'B3g' 'Ag' 'B1g' 'B1u' 'B2u' 'B3u' 'Ag']
irreps of each MO ['Ag' 'Ag' 'B2u' 'B3u' 'B1u' 'Ag' 'B2u' 'B3u' 'B1u' 'B2u' 'B3u' 'Ag' 'B1u'
 'Ag' 'B2g' 'B3g' 'Ag' 'B1g' 'Ag' 'B1g' 'B2g' 'B3g' 'Ag' 'B2u' 'B3u' 'B1u'
 'Ag' 'Ag' 'B1g' 'B2g' 'B3g' 'Ag' 'B2u' 'B3u' 'B1u' 'Ag']
irreps of each MO ['Ag' 'Ag' 'B2u' 'B3u' 'B1u' 'Ag' 'B1u' 'B2u' 'B3u' 'B1u' 'B3u' 'B2u' 'Ag'
 'Ag' 'B2g' 'B3g' 'Ag' 'B1g' 'Ag' 'B2g' 'B3g' 'B1g' 'Ag' 'B1u' 'B3u' 'B2u'
 'Ag' 'Ag' 'B3g' 'B2g' 'B1g' 'Ag' 'B1u' 'B3u' 'B2u' 'Ag']
